ITEM: TIMESTEP
1000000
ITEM: NUMBER OF ATOMS
1000
ITEM: BOX BOUNDS pp pp pp
-4.4179580044750688e+00 4.4179580044750688e+00
-4.4179580044750688e+00 4.4179580044750688e+00
-4.4179580044750688e+00 4.4179580044750688e+00
ITEM: ATOMS id type xs ys zs
1 1 0.762928 0.72788 0.595158
2 1 0.441283 0.218326 0.545064
3 1 0.775565 0.364748 0.28992
4 1 0.368762 0.622489 0.967084
5 1 0.611359 0.265357 0.612739
6 1 0.0414454 0.434721 0.0774882
7 1 0.5516 0.637161 0.514213
8 1 0.448837 0.248437 0.33011
9 1 0.0163999 0.264171 0.0622377
10 1 0.379254 0.506132 0.0727045
11 1 0.51189 0.289585 0.50868
12 1 0.282541 0.151217 0.0801336
13 1 0.48132 0.0896474 0.701656
14 1 0.978344 0.54888 0.494879
15 1 0.673989 0.687619 0.979531
16 1 0.610467 0.717421 0.466298
17 1 0.904895 0.0416374 0.300188
18 1 0.856478 0.747773 0.862916
19 1 0.32191 0.229487 0.544806
20 1 0.867345 0.23988 0.759688
21 1 0.860596 0.514562 0.792222
22 1 0.496099 0.372897 0.0724927
23 1 0.435678 0.871388 0.841543
24 1 0.861998 0.862026 0.227169
25 1 0.507926 0.162978 0.265563
26 1 0.769123 0.294843 0.631227
27 1 0.644419 0.189212 0.396157
28 1 0.0632146 0.494056 0.541854
29 1 0.359246 0.990007 0.460649
30 1 0.0329734 0.577876 0.694743
31 1 0.292972 0.907661 0.509777
32 1 0.668905 0.305437 0.797875
33 1 0.1443 0.317412 0.448142
34 1 0.0773473 0.200806 0.608345
35 1 0.74079 0.231084 0.966611
36 1 0.838787 0.971708 0.232251
37 1 0.485216 0.251027 0.836797
38 1 0.293735 0.376865 0.339076
39 1 0.0771777 0.893241 0.791042
40 1 0.771321 0.897093 0.271816
41 1 0.0699581 0.81453 0.346486
42 1 0.281998 0.503602 0.245837
43 1 0.614354 0.981846 0.588723
44 1 0.49097 0.134998 0.491729
45 1 0.683658 0.714728 0.862376
46 1 0.624585 0.0218141 0.373436
47 1 0.395829 0.135471 0.0899914
48 1 0.994394 0.456323 0.363864
49 1 0.463349 0.838805 0.0503098
50 1 0.579536 0.0809988 0.541271
51 1 0.279766 0.776847 0.200969
52 1 0.692565 0.93731 0.814301
53 1 0.793035 0.400978 0.0509645
54 1 0.538148 0.287442 0.0177469
55 1 0.559926 0.213862 0.449803
56 1 0.238605 0.621856 0.190317
57 1 0.6429 0.902553 0.0237464
58 1 0.484272 0.549706 0.55276
59 1 0.517157 0.638688 0.087305
60 1 0.115154 0.497791 0.923389
61 1 0.879529 0.256708 0.163962
62 1 0.555567 0.184007 0.163372
63 1 0.889639 0.14021 0.915686
64 1 0.610466 0.241753 0.726797
65 1 0.0641025 0.685587 0.104422
66 1 0.254001 0.630772 0.0712351
67 1 0.856024 0.470124 0.130713
68 1 0.384885 0.834317 0.668996
69 1 0.221716 0.36108 0.0480894
70 1 0.651693 0.787118 0.125081
71 1 0.676629 0.356806 0.478704
72 1 0.0551772 0.798136 0.453213
73 1 0.865847 0.151405 0.303227
74 1 0.500251 0.780359 0.876714
75 1 0.501453 0.872636 0.347166
76 1 0.446527 0.928041 0.627516
77 1 0.0852851 0.340939 0.0343603
78 1 0.858601 0.564916 0.558653
79 1 0.516722 0.485176 0.311554
80 1 0.0816656 0.828112 0.241729
81 1 0.0224412 0.177598 0.438024
82 1 0.730586 0.816307 0.717241
83 1 0.81083 0.570125 0.0674784
84 1 0.360184 0.105847 0.797934
85 1 0.281268 0.286059 0.806328
86 1 0.595737 0.0943047 0.932085
87 1 0.381954 0.751821 0.209165
88 1 0.891704 0.0260853 0.91537
89 1 0.186403 0.561146 0.106809
90 1 0.407719 0.148675 0.967578
91 1 0.0446888 0.924516 0.190995
92 1 0.992296 0.249263 0.544741
93 1 0.745707 0.475867 0.219094
94 1 0.489593 0.592136 0.329997
95 1 0.322081 0.197622 0.751307
96 1 0.1559 0.152326 0.196132
97 1 0.000406358 0.388177 0.674328
98 1 0.490685 0.845073 0.557024
99 1 0.616948 0.37598 0.861147
100 1 0.0107471 0.481324 0.256133
101 1 0.075852 0.30996 0.157
102 1 0.431784 0.806147 0.385106
103 1 0.329226 0.944873 0.174738
104 1 0.546433 0.881128 0.742723
105 1 0.231852 0.259851 0.612773
106 1 0.283711 0.537386 0.134289
107 1 0.547631 0.595429 0.738046
108 1 0.383725 0.294223 0.608652
109 1 0.944472 0.080391 0.480817
110 1 0.181264 0.187705 0.556501
111 1 0.952943 0.83657 0.332678
112 1 0.637361 0.884614 0.13926
113 1 0.826933 0.0773082 0.237476
114 1 0.127163 0.748058 0.179542
115 1 0.316533 0.0586915 0.629807
116 1 0.25295 0.249771 0.0321747
117 1 0.155719 0.922284 0.0894125
118 1 0.0039484 0.83948 0.727345
119 1 0.0145168 0.894532 0.408298
120 1 0.431945 0.940131 0.0155167
121 1 0.756013 0.535134 0.785966
122 1 0.904575 0.16301 0.202704
123 1 0.51659 0.0126029 0.974428
124 1 0.915153 0.778088 0.159602
125 1 0.257598 0.635229 0.961163
126 1 0.0261161 0.547115 0.799859
127 1 0.799296 0.913875 0.0502668
128 1 0.49483 0.833069 0.662143
129 1 0.64032 0.613789 0.448474
130 1 0.458809 0.451188 0.12782
131 1 0.697218 0.568491 0.169081
132 1 0.4182 0.927434 0.119435
133 1 0.497964 0.152687 0.384943
134 1 0.805331 0.199567 0.584985
135 1 0.725689 0.998405 0.398522
136 1 0.113081 0.444962 0.361674
137 1 0.790102 0.415175 0.946537
138 1 0.447135 0.196084 0.652416
139 1 0.996944 0.878606 0.00602214
140 1 0.231568 0.294031 0.381346
141 1 0.112904 0.118715 0.494098
142 1 0.564994 0.93643 0.408906
143 1 0.572807 0.0735859 0.641558
144 1 0.816877 0.635527 0.622916
145 1 0.250547 0.682462 0.749989
146 1 0.415931 0.162911 0.86374
147 1 0.460461 0.59196 0.912313
148 1 0.556691 0.800493 0.190202
149 1 0.453877 0.643974 0.68281
150 1 0.533086 0.524732 0.0849384
151 1 0.65302 0.915337 0.917808
152 1 0.204455 0.707531 0.237345
153 1 0.171515 0.207352 0.438175
154 1 0.16569 0.0488197 0.8238
155 1 0.61976 0.694042 0.577708
156 1 0.84223 0.723206 0.0915021
157 1 0.705537 0.842718 0.201773
158 1 0.574705 0.455051 0.921993
159 1 0.0505122 0.428374 0.970504
160 1 0.221736 0.226935 0.741824
161 1 0.192483 0.935717 0.483094
162 1 0.430604 0.0452286 0.524891
163 1 0.960726 0.519272 0.607673
164 1 0.893481 0.878772 0.61933
165 1 0.36952 0.00938617 0.347125
166 1 0.131709 0.770036 0.064503
167 1 0.438127 0.091465 0.303369
168 1 0.755184 0.262418 0.738721
169 1 0.0234729 0.985154 0.760007
170 1 0.157988 0.696498 0.818263
171 1 0.467998 0.681443 0.459971
172 1 0.21755 0.40118 0.408153
173 1 0.396729 0.759981 0.103681
174 1 0.949193 0.810712 0.440069
175 1 0.505875 0.304723 0.406832
176 1 0.521952 0.444857 0.534546
177 1 0.999054 0.829283 0.832466
178 1 0.185215 0.597696 0.780941
179 1 0.642801 0.168264 0.500297
180 1 0.92328 0.0564727 0.198395
181 1 0.0479785 0.668967 0.2159
182 1 0.238264 0.581597 0.399624
183 1 0.578626 0.532172 0.490757
184 1 0.15538 0.413523 0.975924
185 1 0.526905 0.67297 0.864105
186 1 0.108807 0.38241 0.688075
187 1 0.0381005 0.286413 0.841692
188 1 0.492863 0.00422035 0.083139
189 1 0.199854 0.0539817 0.719736
190 1 0.956781 0.479449 0.837006
191 1 0.088249 0.252984 0.381439
192 1 0.443117 0.813119 0.278889
193 1 0.516557 0.727727 0.639707
194 1 0.29493 0.331383 0.564599
195 1 0.769357 0.0177838 0.172064
196 1 0.68586 0.493389 0.603228
197 1 0.0861448 0.101363 0.11625
198 1 0.543373 0.781454 0.302124
199 1 0.260832 0.761251 0.31122
200 1 0.0300675 0.908094 0.305707
201 1 0.558207 0.238204 0.343954
202 1 0.312801 0.778992 0.601797
203 1 0.206138 0.362435 0.637562
204 1 0.580732 0.108242 0.437567
205 1 0.540779 0.0400504 0.869629
206 1 0.175361 0.306808 0.9738
207 1 0.0885382 0.842894 0.131057
208 1 0.619056 0.651572 0.809528
209 1 0.131471 0.634575 0.170229
210 1 0.361321 0.690503 0.641737
211 1 0.416737 0.643924 0.276403
212 1 0.348164 0.352313 0.870547
213 1 0.26836 0.485678 0.359236
214 1 0.645642 0.573593 0.677448
215 1 0.796816 0.288905 0.04749
216 1 0.00623033 0.691635 0.596096
217 1 0.132397 0.356059 0.229607
218 1 0.385785 0.583235 0.621112
219 1 0.36781 0.251602 0.936166
220 1 0.993787 0.995877 0.869626
221 1 0.851428 0.0952467 0.13113
222 1 0.396823 0.560103 0.728975
223 1 0.902914 0.275075 0.0538287
224 1 0.930584 0.349045 0.513889
225 1 0.750802 0.253024 0.860255
226 1 0.938933 0.820014 0.927637
227 1 0.148115 0.740699 0.587864
228 1 0.867846 0.302176 0.438831
229 1 0.588259 0.833523 0.479013
230 1 0.961693 0.929757 0.690425
231 1 0.93035 0.313819 0.82956
232 1 0.718222 0.0977348 0.223969
233 1 0.302257 0.392222 0.234111
234 1 0.335727 0.499727 0.658719
235 1 0.422078 0.285601 0.120357
236 1 0.270041 0.17055 0.4776
237 1 0.432265 0.780688 0.493186
238 1 0.118957 0.247795 0.89824
239 1 0.194871 0.961596 0.884433
240 1 0.553297 0.944149 0.905019
241 1 0.991095 0.00539722 0.255444
242 1 0.435688 0.659192 0.14923
243 1 0.487538 0.541758 0.665662
244 1 0.279877 0.789639 0.0798129
245 1 0.836333 0.355344 0.693531
246 1 0.0202946 0.764504 0.171322
247 1 0.750299 0.138247 0.512288
248 1 0.564359 0.316792 0.785549
249 1 0.268049 0.398714 0.81549
250 1 0.383408 0.171857 0.367542
251 1 0.815766 0.2244 0.473511
252 1 0.425869 0.0738549 0.417936
253 1 0.357148 0.226548 0.0349694
254 1 0.712848 0.281291 0.341898
255 1 0.210188 0.108401 0.402004
256 1 0.803205 0.479616 0.611936
257 1 0.250044 0.388056 0.93773
258 1 0.411376 0.0165759 0.741756
259 1 0.325402 0.0837433 0.017099
260 1 0.837902 0.373528 0.586332
261 1 0.813041 0.520561 0.389405
262 1 0.72006 0.343395 0.976548
263 1 0.162547 0.254064 0.213897
264 1 0.354703 0.933479 0.785099
265 1 0.0486237 0.766988 0.665439
266 1 0.268013 0.440241 0.58842
267 1 0.872237 0.575414 0.45698
268 1 0.307194 0.0355116 0.731069
269 1 0.618447 0.12108 0.224075
270 1 0.922722 0.2384 0.275205
271 1 0.223417 0.972879 0.159943
272 1 0.395153 0.266104 0.715173
273 1 0.575715 0.442365 0.038607
274 1 0.876172 0.349372 0.217186
275 1 0.561183 0.856838 0.84132
276 1 0.330507 0.197438 0.643328
277 1 0.640634 0.143692 0.601468
278 1 0.221383 0.804507 0.65637
279 1 0.0596012 0.943669 0.0751774
280 1 0.637694 0.515503 0.993174
281 1 0.644155 0.509091 0.0970124
282 1 0.391265 0.391664 0.0632521
283 1 0.874916 0.359347 0.110898
284 1 0.421872 0.0512519 0.0210341
285 1 0.819533 0.962231 0.343899
286 1 0.61038 0.861069 0.260049
287 1 0.110762 0.460448 0.250688
288 1 0.077471 0.578319 0.0926723
289 1 0.797186 0.910131 0.667155
290 1 0.674513 0.404812 0.260644
291 1 0.974455 0.978785 0.472772
292 1 0.0901846 0.615995 0.863551
293 1 0.767325 0.651989 0.124549
294 1 0.992727 0.387581 0.781846
295 1 0.637659 0.552679 0.779378
296 1 0.927744 0.547029 0.0836161
297 1 0.996486 0.132144 0.148932
298 1 0.177525 0.939774 0.989281
299 1 0.932053 0.315056 0.723483
300 1 0.945814 0.0607439 0.576045
301 1 0.329346 0.252019 0.435076
302 1 0.19071 0.910782 0.588528
303 1 0.610278 0.684767 0.688515
304 1 0.0407852 0.796914 0.948843
305 1 0.134983 0.0231537 0.0440935
306 1 0.445687 0.32668 0.897391
307 1 0.1261 0.870143 0.417898
308 1 0.78189 0.68059 0.80578
309 1 0.307669 0.926967 0.388655
310 1 0.20787 0.424887 0.293618
311 1 0.27526 0.86636 0.735907
312 1 0.789735 0.882687 0.772288
313 1 0.464257 0.0824325 0.810365
314 1 0.740676 0.400051 0.646937
315 1 0.957763 0.733981 0.871958
316 1 0.629805 0.456028 0.427775
317 1 0.82656 0.583832 0.952469
318 1 0.55504 0.678863 0.28005
319 1 0.147256 0.297837 0.564822
320 1 0.387524 0.351451 0.288898
321 1 0.270586 0.420526 0.700051
322 1 0.136854 0.890455 0.314861
323 1 0.946657 0.198908 0.993889
324 1 0.0103617 0.857761 0.622275
325 1 0.608695 0.337944 0.192164
326 1 0.309095 0.43962 0.0140299
327 1 0.143944 0.347893 0.346564
328 1 0.763705 0.517888 0.887857
329 1 0.909675 0.155996 0.69679
330 1 0.0974633 0.652068 0.637001
331 1 0.716759 0.710766 0.307982
332 1 0.635224 0.127968 0.711111
333 1 0.440036 0.555193 0.143999
334 1 0.252222 0.653329 0.852843
335 1 0.372198 0.460909 0.300557
336 1 0.333291 0.545666 0.432728
337 1 0.239726 0.337985 0.154823
338 1 0.516642 0.152157 0.880496
339 1 0.116258 0.500092 0.0367177
340 1 0.956206 0.488323 0.725037
341 1 0.258794 0.0130229 0.455407
342 1 0.758511 0.502409 0.00223635
343 1 0.197293 0.561473 0.0020092
344 1 0.131334 0.62798 0.277975
345 1 0.388179 0.409737 0.954448
346 1 0.378861 0.254943 0.81877
347 1 0.80543 0.814939 0.0303949
348 1 0.601555 0.353661 0.076992
349 1 0.4514 0.964718 0.412402
350 1 0.251989 0.118451 0.789237
351 1 0.727351 0.967203 0.496835
352 1 0.599287 0.979774 0.0920973
353 1 0.829945 0.800455 0.657685
354 1 0.611397 0.95701 0.698596
355 1 0.349954 0.365312 0.747766
356 1 0.00014865 0.647981 0.811581
357 1 0.805674 0.0790762 0.339652
358 1 0.00678902 0.643933 0.927028
359 1 0.74661 0.859899 0.482124
360 1 0.25634 0.878515 0.205861
361 1 0.611913 0.113946 0.825739
362 1 0.938304 0.381429 0.407851
363 1 0.145409 0.0108889 0.547023
364 1 0.461421 0.469971 0.0203531
365 1 0.638092 0.592879 0.557316
366 1 0.454924 0.334333 0.790415
367 1 0.851065 0.106669 0.526225
368 1 0.0736398 0.703769 7.44533e-05
369 1 0.663725 0.789512 0.00212393
370 1 0.743075 0.760308 0.9491
371 1 0.861262 0.969471 0.728654
372 1 0.0801387 0.97109 0.962953
373 1 0.94864 0.921402 0.800638
374 1 0.296141 0.170592 0.966711
375 1 0.936734 0.944523 0.190938
376 1 0.685041 0.190209 0.790599
377 1 0.715195 0.949691 0.603595
378 1 0.0284069 0.0119443 0.650546
379 1 0.298931 0.5865 0.785179
380 1 0.761401 0.891317 0.875529
381 1 0.352265 0.595026 0.203914
382 1 0.596444 0.582681 0.153825
383 1 0.385092 0.330978 0.398299
384 1 0.151552 0.141232 0.77062
385 1 0.854841 0.0937075 0.637093
386 1 0.226149 0.492661 0.931965
387 1 0.984967 0.728583 0.497068
388 1 0.203738 0.334033 0.742406
389 1 0.801706 0.43055 0.835472
390 1 0.54862 0.30481 0.907812
391 1 0.91539 0.47612 0.427751
392 1 0.193458 0.826307 0.136008
393 1 0.415618 0.0388585 0.639177
394 1 0.721602 0.101206 0.83458
395 1 0.824145 0.322198 0.813169
396 1 0.43974 0.697643 0.926516
397 1 0.211616 0.460488 0.0601675
398 1 0.746868 0.484141 0.10989
399 1 0.57624 0.576737 0.275257
400 1 0.267101 0.893653 0.0950848
401 1 0.404399 0.034064 0.129257
402 1 0.718205 0.250312 0.44642
403 1 0.475766 0.223059 0.940885
404 1 0.389356 0.37346 0.170637
405 1 0.686289 0.951366 0.208562
406 1 0.616744 0.323603 0.295393
407 1 0.628442 0.733953 0.356037
408 1 0.86485 0.25703 0.64981
409 1 0.14135 0.781279 0.950119
410 1 0.674277 0.920972 0.312783
411 1 0.869724 0.118065 0.0293798
412 1 0.244135 0.8785 0.322933
413 1 0.454481 0.956788 0.904139
414 1 0.939268 0.438339 0.0651316
415 1 0.479282 0.860813 0.946533
416 1 0.687327 0.435705 0.925519
417 1 0.704853 0.63161 0.734807
418 1 0.0540658 0.447158 0.862817
419 1 0.982309 0.243616 0.163851
420 1 0.576453 0.70139 0.166674
421 1 0.582271 0.0764536 0.0462454
422 1 0.769763 0.637448 0.243765
423 1 0.884267 0.862533 0.723774
424 1 0.827597 0.698266 0.308747
425 1 0.816075 0.673621 0.418317
426 1 0.836242 0.95275 0.841262
427 1 0.885078 0.391764 0.888873
428 1 0.619311 0.29601 0.400116
429 1 0.156124 0.0451152 0.937788
430 1 0.669277 0.815276 0.890416
431 1 0.732292 0.743835 0.0706754
432 1 0.963223 0.107951 0.373449
433 1 0.876832 0.626036 0.1335
434 1 0.575713 0.210692 0.944814
435 1 0.554503 0.176172 0.665094
436 1 0.456192 0.424648 0.249434
437 1 0.331737 0.560162 0.32022
438 1 0.646735 0.200711 0.289958
439 1 0.521219 0.404518 0.747384
440 1 0.988848 0.371412 0.895712
441 1 0.540939 0.165032 0.765835
442 1 0.374718 0.472458 0.190706
443 1 0.0967929 0.868012 0.0133307
444 1 0.507423 0.764627 0.985832
445 1 0.20583 0.37621 0.513345
446 1 0.365965 0.615088 0.0774601
447 1 0.9477 0.448208 0.949712
448 1 0.340313 0.0938015 0.907076
449 1 0.68845 0.815679 0.31356
450 1 0.757572 0.882197 0.381093
451 1 0.819764 0.19584 0.0894904
452 1 0.119737 0.579189 0.497322
453 1 0.0544051 0.360321 0.400156
454 1 0.429033 0.455235 0.706363
455 1 0.178626 0.500619 0.431608
456 1 0.306665 0.189946 0.867036
457 1 0.325738 0.460212 0.882911
458 1 0.904067 0.903947 0.503557
459 1 0.676994 0.79536 0.42242
460 1 0.511084 0.124055 0.983949
461 1 0.927222 0.188636 0.488373
462 1 0.8213 0.600981 0.845016
463 1 0.69063 0.479777 0.714294
464 1 0.918243 0.619302 0.636981
465 1 0.352518 0.391056 0.641215
466 1 0.28261 0.882297 0.616788
467 1 0.221549 0.0935963 0.00944601
468 1 0.675136 0.317957 0.686404
469 1 0.869133 0.528788 0.676582
470 1 0.86463 0.986198 0.616607
471 1 0.845366 0.449593 0.250416
472 1 0.0722606 0.561513 0.214672
473 1 0.232883 0.320156 0.273114
474 1 0.778685 0.0403054 0.563545
475 1 0.867267 0.27623 0.546656
476 1 0.741999 0.837048 0.599392
477 1 0.878452 0.842088 0.829461
478 1 0.566516 0.956846 0.307583
479 1 0.124851 0.599614 0.382421
480 1 0.85663 0.235439 0.862048
481 1 0.491145 0.580278 0.443117
482 1 0.319249 0.734877 0.814473
483 1 0.902896 0.430857 0.649387
484 1 0.869682 0.32347 0.318377
485 1 0.925142 0.92604 0.299165
486 1 0.955456 0.728858 0.978356
487 1 0.796086 0.807844 0.146609
488 1 0.299356 0.807125 0.973451
489 1 0.100519 0.397925 0.576627
490 1 0.979031 0.329098 0.217947
491 1 0.161906 0.716752 0.707027
492 1 0.176684 0.527802 0.323311
493 1 0.881753 0.369069 0.999285
494 1 0.459211 0.97061 0.300748
495 1 0.0915015 0.676526 0.522675
496 1 0.25161 0.126879 0.17898
497 1 0.301658 0.421002 0.11309
498 1 0.922973 0.1709 0.0956352
499 1 0.104618 0.144045 0.38744
500 1 0.616927 0.632749 0.913425
501 1 0.184539 0.654833 0.457485
502 1 0.329303 0.258928 0.318554
503 1 0.502215 0.363816 0.176929
504 1 0.491136 0.865749 0.446955
505 1 0.414504 0.42786 0.813441
506 1 0.742436 0.421078 0.541379
507 1 0.572455 0.821774 0.0649629
508 1 0.635334 0.751571 0.246132
509 1 0.628823 0.39577 0.754474
510 1 0.0485125 0.743965 0.769906
511 1 0.449675 0.368267 0.567307
512 1 0.74337 0.465943 0.32404
513 1 0.064831 0.189511 0.71711
514 1 0.354981 0.413654 0.53136
515 1 0.750475 0.178984 0.296233
516 1 0.154457 0.0472297 0.328517
517 1 0.458997 0.211684 0.0466989
518 1 0.433943 0.747296 0.703999
519 1 0.533644 0.0460434 0.259786
520 1 0.510496 0.886915 0.231418
521 1 0.177561 0.431021 0.756372
522 1 0.263715 0.135058 0.688999
523 1 0.791226 0.0553774 0.450617
524 1 0.138224 0.994956 0.651479
525 1 0.648428 0.275254 0.0209955
526 1 0.682116 0.0587889 0.553847
527 1 0.233973 0.960956 0.772686
528 1 0.432379 0.519039 0.3726
529 1 0.450852 0.390624 0.461204
530 1 0.683946 0.506651 0.500057
531 1 0.119159 0.833904 0.622915
532 1 0.0563652 0.331905 0.507736
533 1 0.630633 0.431283 0.5383
534 1 0.853613 0.731273 0.981682
535 1 0.461746 0.480805 0.89965
536 1 0.667877 0.0285773 0.769013
537 1 0.697151 0.537948 0.390199
538 1 0.0551053 0.310702 0.620818
539 1 0.443999 0.686319 0.0380644
540 1 0.554059 0.261097 0.236504
541 1 0.718675 0.850865 0.0826782
542 1 0.144425 0.275819 0.674527
543 1 0.988885 0.680223 0.700634
544 1 0.681486 0.427966 0.0438022
545 1 0.300315 0.0450443 0.127781
546 1 0.278572 0.457358 0.47637
547 1 0.101409 0.709083 0.40457
548 1 0.306453 0.839684 0.835094
549 1 0.929964 0.325975 0.613697
550 1 0.169852 0.894222 0.698442
551 1 0.5629 0.0535565 0.158341
552 1 0.533097 0.653744 0.977683
553 1 0.649865 0.869771 0.654051
554 1 0.708184 0.327697 0.0901581
555 1 0.976347 0.101127 0.861161
556 1 0.392551 0.0142401 0.844043
557 1 0.131614 0.983267 0.752983
558 1 0.76903 0.00635308 0.778215
559 1 0.740414 0.00125288 0.282242
560 1 0.513963 0.429103 0.638686
561 1 0.898886 0.669579 0.796813
562 1 0.705106 0.308204 0.222931
563 1 0.65608 0.283643 0.904537
564 1 0.934708 0.684042 0.313617
565 1 0.109004 0.231522 0.00244564
566 1 0.31613 0.709213 0.92825
567 1 0.848361 0.420913 0.359855
568 1 0.332243 0.479419 0.77037
569 1 0.0234068 0.157741 0.0434632
570 1 0.77264 0.773179 0.375473
571 1 0.254378 0.701991 0.638102
572 1 0.809602 0.539731 0.274378
573 1 0.787186 0.911209 0.158078
574 1 0.987008 0.350874 0.115144
575 1 0.846333 0.214249 0.98099
576 1 0.940751 0.403805 0.29864
577 1 0.244916 0.968127 0.669078
578 1 0.894058 0.772399 0.269902
579 1 0.803152 0.495846 0.489601
580 1 0.451513 0.195004 0.163877
581 1 0.0110788 0.534109 0.906902
582 1 0.0732272 0.935506 0.581452
583 1 0.836559 0.779287 0.760919
584 1 0.818305 0.658488 0.526874
585 1 0.176977 0.538685 0.215591
586 1 0.667292 0.666444 0.110227
587 1 0.0504728 0.198846 0.224007
588 1 0.912157 0.527143 0.20289
589 1 0.820601 0.940471 0.949873
590 1 0.831281 0.393479 0.477436
591 1 0.211581 0.0694309 0.621033
592 1 0.938897 0.427196 0.183257
593 1 0.00585223 0.114123 0.65063
594 1 0.656615 0.647436 0.231373
595 1 0.198914 0.197795 0.953586
596 1 0.322059 0.811357 0.375846
597 1 0.064306 0.520307 0.434984
598 1 0.423505 0.765617 0.598913
599 1 0.896031 0.904576 0.0101939
600 1 0.549113 0.194575 0.560732
601 1 0.703363 0.648565 0.628661
602 1 0.393372 0.300939 0.50287
603 1 0.783524 0.0216834 0.672611
604 1 0.7299 0.866711 0.976491
605 1 0.183615 0.638094 0.567988
606 1 0.82896 0.83363 0.931108
607 1 0.35957 0.442675 0.403119
608 1 0.840715 0.844625 0.335676
609 1 0.376047 0.120283 0.69428
610 1 0.991742 0.289773 0.446084
611 1 0.282954 0.199028 0.243931
612 1 0.525407 0.271665 0.125653
613 1 0.289929 0.916422 0.989402
614 1 0.588957 0.956873 0.803337
615 1 0.0652177 0.537217 0.322495
616 1 0.106408 0.729862 0.291735
617 1 0.536399 0.915209 0.0193209
618 1 0.447328 0.0632037 0.91864
619 1 0.171267 0.789756 0.356295
620 1 0.630918 0.257119 0.128236
621 1 0.805301 0.926965 0.554285
622 1 0.499871 0.275423 0.617932
623 1 0.00466409 0.50281 0.147058
624 1 0.505852 0.615918 0.207851
625 1 0.60212 0.845871 0.367326
626 1 0.318678 0.304389 0.09534
627 1 0.553704 0.905781 0.619097
628 1 0.712858 0.958454 0.092572
629 1 0.341997 0.837481 0.276636
630 1 0.94386 0.780043 0.666786
631 1 0.234911 0.993702 0.0549806
632 1 0.295744 0.562101 0.887485
633 1 0.433678 0.720201 0.818036
634 1 0.680781 0.410383 0.156249
635 1 0.91288 0.290581 0.936908
636 1 0.880489 0.698426 0.695096
637 1 0.526676 0.90453 0.12394
638 1 0.677549 0.740358 0.760869
639 1 0.0372811 0.0416511 0.03457
640 1 0.401842 0.188236 0.260314
641 1 0.700636 0.588725 0.0551258
642 1 0.0373677 0.594929 0.569015
643 1 0.805861 0.172796 0.68896
644 1 0.951973 0.701409 0.0952097
645 1 0.2118 0.44219 0.19282
646 1 0.449947 0.403041 0.356595
647 1 0.620445 0.368493 0.968435
648 1 0.783597 0.787957 0.258797
649 1 7.7603e-05 0.116436 0.756315
650 1 0.756916 0.550422 0.672419
651 1 0.314315 0.794598 0.486968
652 1 0.968687 0.56605 0.38073
653 1 0.161241 0.678273 0.934579
654 1 0.699067 0.462073 0.813322
655 1 0.847168 0.83283 0.451552
656 1 0.0395488 0.17055 0.933527
657 1 0.501598 0.750892 0.101093
658 1 0.322501 0.292635 0.215749
659 1 0.454718 0.655008 0.573548
660 1 0.682037 0.337875 0.584061
661 1 0.486249 0.804509 0.773566
662 1 0.518039 0.0477892 0.363513
663 1 0.394553 0.539151 0.843694
664 1 0.478102 0.980729 0.195487
665 1 0.379808 0.875035 0.941158
666 1 0.0513484 0.0687311 0.328613
667 1 0.0642067 0.458214 0.750919
668 1 0.641162 0.133728 0.118858
669 1 0.694692 0.554504 0.282848
670 1 0.437947 0.174266 0.764317
671 1 0.159089 0.759349 0.481445
672 1 0.113062 0.150263 0.288559
673 1 0.0424587 0.0555175 0.427753
674 1 0.0667035 0.918101 0.691316
675 1 0.567867 0.375109 0.463674
676 1 0.579642 0.512289 0.594209
677 1 0.777489 0.751925 0.487171
678 1 0.588394 0.222751 0.840026
679 1 0.554617 0.566436 0.848804
680 1 0.558868 0.394326 0.361069
681 1 0.0929138 0.642097 0.751509
682 1 0.804735 0.0588245 0.961066
683 1 0.862388 0.990144 0.121728
684 1 0.890638 0.658294 0.923178
685 1 0.860204 0.48912 0.00776293
686 1 0.449117 0.580699 0.0300408
687 1 0.00188952 0.75548 0.276357
688 1 0.461019 0.0959787 0.189649
689 1 0.832528 0.712738 0.196976
690 1 0.396059 0.596705 0.507289
691 1 0.981911 0.587639 0.273462
692 1 0.652224 0.157421 0.998895
693 1 0.929563 0.554915 0.963707
694 1 0.0196824 0.193731 0.327154
695 1 0.144165 0.0242752 0.437176
696 1 0.382176 0.863467 0.553493
697 1 0.175255 0.418949 0.864495
698 1 0.317783 0.0707166 0.521522
699 1 0.487548 0.72682 0.222593
700 1 0.318765 0.0877707 0.41543
701 1 0.241079 0.520558 0.714082
702 1 0.587724 0.80643 0.594543
703 1 0.694644 0.0940194 0.327513
704 1 0.384218 0.781653 0.880865
705 1 0.089825 0.226558 0.502682
706 1 0.750078 0.149558 0.402664
707 1 0.259086 0.731317 0.422044
708 1 0.97609 0.117834 0.267949
709 1 0.514406 0.501915 0.199103
710 1 0.775336 0.672521 0.905039
711 1 0.305822 0.658191 0.364526
712 1 0.524034 0.734437 0.531646
713 1 0.16971 0.170686 0.667752
714 1 0.230001 0.844335 0.435041
715 1 0.875443 0.00451227 0.507559
716 1 0.923953 0.0301074 0.799181
717 1 0.655553 0.530775 0.8816
718 1 0.324229 0.332521 0.990111
719 1 0.378746 0.133431 0.581971
720 1 0.387302 0.026251 0.236151
721 1 0.489581 0.510587 0.781404
722 1 0.19309 0.624962 0.673281
723 1 0.58318 0.961026 0.200148
724 1 0.592828 0.75553 0.818309
725 1 0.0639746 0.0829478 0.218481
726 1 0.877836 0.735953 0.487872
727 1 0.247509 0.719783 0.531615
728 1 0.887989 0.642311 0.0303919
729 1 0.517648 0.698766 0.74898
730 1 0.314388 0.949166 0.281498
731 1 0.570523 0.188751 0.0582521
732 1 0.779947 0.659991 0.0174125
733 1 0.971532 0.222241 0.762502
734 1 0.752296 0.57087 0.563581
735 1 0.0960186 0.359473 0.904347
736 1 0.582825 0.469031 0.810381
737 1 0.934861 0.585596 0.738829
738 1 0.890595 0.723333 0.592195
739 1 0.756699 0.788187 0.82529
740 1 0.241209 0.272994 0.493905
741 1 0.186132 0.823936 0.249968
742 1 0.430961 0.537381 0.264976
743 1 0.058713 0.487726 0.644091
744 1 0.261894 0.0235178 0.343599
745 1 0.684888 0.062333 0.0467014
746 1 0.513248 0.978608 0.694857
747 1 0.751239 0.997547 0.881489
748 1 0.576035 0.500404 0.70665
749 1 0.418006 0.480567 0.594516
750 1 0.206231 0.711812 0.125152
751 1 0.625307 0.98996 0.478552
752 1 0.0899894 0.986006 0.264961
753 1 0.446156 0.900831 0.733239
754 1 0.962877 0.08938 0.97487
755 1 0.0168137 0.522434 0.0222601
756 1 0.191199 0.677411 0.351865
757 1 0.580919 0.550875 0.377883
758 1 0.511291 0.389035 0.966036
759 1 0.0379181 0.646156 0.33664
760 1 0.131353 0.511125 0.824505
761 1 0.385743 0.513209 0.964522
762 1 0.956705 0.954235 0.0806013
763 1 0.111405 0.0953414 0.612721
764 1 0.387717 0.879466 0.4444
765 1 0.868449 0.60241 0.344712
766 1 0.967628 0.949485 0.575
767 1 0.000105296 0.736338 0.385272
768 1 0.785079 0.399448 0.164707
769 1 0.798032 0.178724 0.194622
770 1 0.120037 0.121533 0.00186452
771 1 0.236513 0.559676 0.502266
772 1 0.358872 0.978614 0.57716
773 1 0.0152373 0.877049 0.51225
774 1 0.6344 0.468695 0.32663
775 1 0.771975 0.313929 0.519909
776 1 0.544719 0.622437 0.625926
777 1 0.877826 0.869584 0.118667
778 1 0.88988 0.405248 0.782316
779 1 0.132871 0.559027 0.613908
780 1 0.118617 0.420626 0.471348
781 1 0.902726 0.464266 0.537826
782 1 0.934923 0.6349 0.524419
783 1 0.685428 0.0843911 0.442104
784 1 0.0885871 0.95106 0.478373
785 1 0.941969 0.0708085 0.0844741
786 1 0.966633 0.845382 0.225086
787 1 0.315945 0.689997 0.145064
788 1 0.0793352 0.0746723 0.714674
789 1 0.624157 0.421264 0.643586
790 1 0.417248 0.494188 0.483148
791 1 0.0121099 0.0133337 0.148853
792 1 0.64713 0.84933 0.776552
793 1 0.0807773 0.280866 0.276991
794 1 0.298467 0.551208 0.0175935
795 1 0.175463 0.467651 0.650405
796 1 0.272533 0.187588 0.370356
797 1 0.681104 0.376045 0.372989
798 1 0.737712 0.0991197 0.731236
799 1 0.0942917 0.208152 0.123242
800 1 0.157639 0.655571 0.0528252
801 1 0.991341 0.41683 0.574499
802 1 0.983577 0.30177 0.340263
803 1 0.64897 0.889195 0.541841
804 1 0.977919 0.233061 0.651501
805 1 0.669308 0.0401788 0.154219
806 1 0.049386 0.408598 0.189552
807 1 0.189322 0.319611 0.850808
808 1 0.909016 0.170461 0.594742
809 1 0.22691 0.782006 0.775184
810 1 0.96984 0.981738 0.975985
811 1 0.353771 0.842133 0.158994
812 1 0.401092 0.62262 0.387512
813 1 0.55987 0.0533223 0.763466
814 1 0.200654 0.964858 0.278327
815 1 0.505039 0.00482024 0.589071
816 1 0.186358 0.874612 0.810018
817 1 0.45302 0.820646 0.163626
818 1 0.668255 0.0391571 0.663403
819 1 0.399147 0.895545 0.339173
820 1 0.76419 0.614645 0.348031
821 1 0.516232 0.396295 0.854354
822 1 0.342542 0.21301 0.141983
823 1 0.622139 0.276339 0.504496
824 1 0.501373 0.33729 0.291755
825 1 0.283083 0.0274276 0.834995
826 1 0.557103 0.335775 0.675233
827 1 0.760985 0.138318 0.0239236
828 1 0.23841 0.232291 0.141579
829 1 0.310341 0.764083 0.707118
830 1 0.484181 0.975127 0.796773
831 1 0.045871 0.377368 0.295575
832 1 0.245776 0.602015 0.295796
833 1 0.569973 0.352767 0.574822
834 1 0.083577 0.963701 0.366449
835 1 0.0206794 0.779452 0.0607004
836 1 0.176967 0.233849 0.312629
837 1 0.452704 0.613863 0.803492
838 1 0.579202 0.4396 0.137188
839 1 0.864427 0.490504 0.89907
840 1 0.328688 0.106966 0.299309
841 1 0.64665 0.0263411 0.867907
842 1 0.0624402 0.0692121 0.820827
843 1 0.713583 0.67436 0.515304
844 1 0.125047 0.855293 0.520409
845 1 0.345236 0.982361 0.0591369
846 1 0.775751 0.351469 0.399383
847 1 0.329652 0.700568 0.0330148
848 1 0.533855 0.54288 0.97309
849 1 0.367044 0.707758 0.529061
850 1 0.902146 0.148183 0.805551
851 1 0.876313 0.617024 0.239108
852 1 0.301179 0.627522 0.574299
853 1 0.980709 0.859411 0.125526
854 1 0.981144 0.609996 0.157202
855 1 0.444204 0.284083 0.221893
856 1 0.3094 0.929966 0.878893
857 1 0.806264 0.263614 0.252951
858 1 0.714145 0.218351 0.0807211
859 1 0.310532 0.678219 0.257086
860 1 0.25408 0.99195 0.56359
861 1 0.755171 0.588474 0.466526
862 1 0.586357 0.125842 0.328867
863 1 0.182945 0.581327 0.892725
864 1 0.744052 0.115665 0.621499
865 1 0.798113 0.170416 0.802994
866 1 0.616951 0.000277039 0.980222
867 1 0.12071 0.800964 0.851126
868 1 0.430366 0.310673 0.000409369
869 1 0.368822 0.00114391 0.955771
870 1 0.725775 0.972923 0.990363
871 1 0.226301 0.13407 0.291602
872 1 0.881949 0.026651 0.40672
873 1 0.297859 0.358703 0.45644
874 1 0.9797 0.351372 0.00838657
875 1 0.888025 0.753177 0.378489
876 1 0.360466 0.859624 0.0528118
877 1 0.707992 0.0735667 0.940721
878 1 0.0604256 0.718566 0.874342
879 1 0.123542 0.806591 0.740806
880 1 0.351038 0.112274 0.18542
881 1 0.193066 0.948398 0.380334
882 1 0.716603 0.61012 0.848497
883 1 0.827586 0.0723904 0.848221
884 1 0.677103 0.785607 0.53324
885 1 0.467478 0.705774 0.353603
886 1 0.234676 0.502131 0.82076
887 1 0.382027 0.815866 0.775129
888 1 0.702254 0.203129 0.66585
889 1 0.73922 0.443703 0.429265
890 1 0.342768 0.935798 0.678591
891 1 0.269914 0.142389 0.577588
892 1 0.236362 0.107999 0.899609
893 1 0.907151 0.918248 0.401858
894 1 0.01777 0.274877 0.951754
895 1 0.716073 0.947288 0.707884
896 1 0.653858 0.636363 0.341998
897 1 0.442348 0.233985 0.436797
898 1 0.915906 0.915801 0.903357
899 1 0.978208 0.990521 0.3627
900 1 0.264671 0.0155819 0.956973
901 1 0.3736 0.160946 0.474969
902 1 0.66571 0.903076 0.429035
903 1 0.17721 0.0530901 0.223153
904 1 0.371496 0.715986 0.420629
905 1 0.589625 0.841813 0.94994