ITEM: TIMESTEP
5000000
ITEM: NUMBER OF ATOMS
1000
ITEM: BOX BOUNDS pp pp pp
-5.1764824342158775e+00 5.1764824342158775e+00
-5.1764824342158775e+00 5.1764824342158775e+00
-5.1764824342158775e+00 5.1764824342158775e+00
ITEM: ATOMS id type xs ys zs
1 1 0.145698 0.911507 0.942548
2 1 0.702925 0.760137 0.846794
3 1 0.829752 0.705056 0.00437364
4 1 0.679346 0.012607 0.197416
5 1 0.204652 0.663327 0.810688
6 1 0.113816 0.876832 0.785767
7 1 0.272 0.138866 0.611218
8 1 0.707039 0.919709 0.231033
9 1 0.705287 0.0157747 0.762903
10 1 0.548558 0.102463 0.606535
11 1 0.708173 0.439537 0.233924
12 1 0.0194635 0.154188 0.736499
13 1 0.0251598 0.720642 0.857603
14 1 0.425332 0.784118 0.904913
15 1 0.493272 0.620221 0.97075
16 1 0.909766 0.424011 0.403128
17 1 0.406981 0.197997 0.508376
18 1 0.175153 0.341492 0.663977
19 1 0.228529 0.466323 0.737283
20 1 0.74447 0.143319 0.0587848
21 1 0.897827 0.748244 0.260018
22 1 0.725945 0.462637 0.42944
23 1 0.947934 0.859274 0.85184
24 1 0.163411 0.852226 0.537493
25 1 0.82694 0.219357 0.666727
26 1 0.651699 0.63118 0.68171
27 1 0.404354 0.53841 0.714904
28 1 0.655679 0.967571 0.104679
29 1 0.784133 0.750698 0.794708
30 1 0.756671 0.526464 0.781819
31 1 0.80567 0.191397 0.26688
32 1 0.140314 0.634993 0.958532
33 1 0.893225 0.915768 0.931116
34 1 0.546256 0.951134 0.0855627
35 1 0.818982 0.725542 0.101446
36 1 0.876626 0.287206 0.717715
37 1 0.672986 0.482391 0.971576
38 1 0.599902 0.23336 0.264421
39 1 0.767336 0.760169 0.498342
40 1 0.481256 0.140134 0.0588226
41 1 0.634199 0.465554 0.167508
42 1 0.783446 0.612014 0.677612
43 1 0.579494 0.532843 0.69181
44 1 0.908972 0.256558 0.636004
45 1 0.398171 0.970013 0.807983
46 1 0.940981 0.97202 0.108381
47 1 0.26967 0.535579 0.255427
48 1 0.0216358 0.96599 0.523906
49 1 0.559994 0.432589 0.346612
50 1 0.341876 0.505919 0.371795
51 1 0.933541 0.271335 0.373285
52 1 0.720614 0.327171 0.611821
53 1 0.721183 0.569033 0.9067
54 1 0.945569 0.108385 0.94427
55 1 0.344205 0.501692 0.14656
56 1 0.86004 0.364394 0.00271909
57 1 0.657134 0.186206 0.871204
58 1 0.341848 0.293914 0.828287
59 1 0.224122 0.241289 0.383757
60 1 0.531481 0.145229 0.688936
61 1 0.787454 0.491616 0.604685
62 1 0.9751 0.0741161 0.766195
63 1 0.918175 0.667708 0.402245
64 1 0.791293 0.137064 0.778149
65 1 0.727381 0.0778224 0.843028
66 1 0.623067 0.0403761 0.688075
67 1 0.335656 0.625869 0.892211
68 1 0.297755 0.469417 0.959957
69 1 0.138679 0.685885 0.69084
70 1 0.815555 0.697412 0.437881
71 1 0.973386 0.949229 0.304135
72 1 0.325708 0.788766 0.0914247
73 1 0.00664424 0.727642 0.338509
74 1 0.0888786 0.746675 0.201931
75 1 0.731602 0.48273 0.134912
76 1 0.0651724 0.121114 0.215445
77 1 0.783819 0.444979 0.36717
78 1 0.915874 0.181551 0.71912
79 1 0.640677 0.343343 0.210292
80 1 0.947261 0.176512 0.534743
81 1 0.509192 0.309341 0.776637
82 1 0.667648 0.290407 0.385844
83 1 0.425455 0.346805 0.423567
84 1 0.434997 0.795419 0.00709453
85 1 0.955805 0.997812 0.604808
86 1 0.829195 0.901947 0.56208
87 1 0.117169 0.418517 0.0639087
88 1 0.501706 0.188028 0.445809
89 1 0.00575012 0.446422 0.452348
90 1 0.597716 0.962067 0.495752
91 1 0.257511 0.614757 0.454068
92 1 0.0367146 0.612068 0.544537
93 1 0.202051 0.711499 0.91822
94 1 0.476541 0.574396 0.17416
95 1 0.939938 0.421655 0.805646
96 1 0.0273867 0.908688 0.857789
97 1 0.439979 0.616947 0.877155
98 1 0.922274 0.867016 0.740967
99 1 0.484344 0.984658 0.756216
100 1 0.203361 0.0110794 0.499411
101 1 0.77379 0.337597 0.0351796
102 1 0.827721 0.409588 0.560835
103 1 0.011447 0.995393 0.396726
104 1 0.794107 0.143597 0.453696
105 1 0.11398 0.641416 0.4685
106 1 0.893012 0.20227 0.194995
107 1 0.842376 0.237845 0.917029
108 1 0.118226 0.638981 0.239595
109 1 0.853725 0.0294063 0.445865
110 1 0.624975 0.69587 0.349624
111 1 0.234309 0.506249 0.363757
112 1 0.228396 0.996186 0.386488
113 1 0.114848 0.975173 0.793121
114 1 0.241652 0.924388 0.192691
115 1 0.613287 0.507755 0.520695
116 1 0.112292 0.0665539 0.115758
117 1 0.0423969 0.20664 0.366474
118 1 0.514241 0.0445875 0.688254
119 1 0.953703 0.67042 0.80292
120 1 0.221373 0.730321 0.735975
121 1 0.131482 0.895849 0.294638
122 1 0.487188 0.529783 0.942149
123 1 0.235334 0.0964777 0.528391
124 1 0.378412 0.249387 0.0144055
125 1 0.575914 0.739234 0.136585
126 1 0.0339837 0.963175 0.0585106
127 1 0.474812 0.744388 0.191011
128 1 0.429983 0.379144 0.895053
129 1 0.431236 0.247817 0.596232
130 1 0.348963 0.131146 0.103592
131 1 0.390509 0.685218 0.932366
132 1 0.842954 0.313987 0.814422
133 1 0.364524 0.590557 0.265268
134 1 0.528549 0.427038 0.690415
135 1 0.52948 0.815014 0.236862
136 1 0.903195 0.452601 0.254757
137 1 0.152129 0.334445 0.508566
138 1 0.127519 0.785832 0.122432
139 1 0.355975 0.934252 0.143053
140 1 0.465678 0.316485 0.974758
141 1 0.332652 0.928922 0.247906
142 1 0.61827 0.856542 0.247978
143 1 0.297488 0.401324 0.123478
144 1 0.824691 0.365787 0.414708
145 1 0.42787 0.880648 0.823958
146 1 0.702332 0.958947 0.487154
147 1 0.226854 0.843146 0.0414961
148 1 0.898469 0.693523 0.572528
149 1 0.332383 0.722701 0.773321
150 1 0.535422 0.0358712 0.939947
151 1 0.171002 0.0140018 0.296631
152 1 0.704475 0.666821 0.0936362
153 1 0.331637 0.384928 0.888483
154 1 0.409103 0.866487 0.93132
155 1 0.380652 0.799681 0.809408
156 1 0.486595 0.0984061 0.437007
157 1 0.858919 0.00924676 0.933253
158 1 0.577007 0.302503 0.320141
159 1 0.93546 0.928758 0.38209
160 1 0.547304 0.803298 0.546166
161 1 0.0903291 0.618438 0.365853
162 1 0.803575 0.984887 0.502604
163 1 0.860289 0.910987 0.0416829
164 1 0.863887 0.92793 0.154674
165 1 0.0564176 0.698157 0.737387
166 1 0.988694 0.188645 0.184831
167 1 0.93729 0.899922 0.568208
168 1 0.0193239 0.570916 0.392192
169 1 0.976489 0.748668 0.739562
170 1 0.167219 0.782207 0.661744
171 1 0.0546749 0.601823 0.150274
172 1 0.624456 0.367447 0.570397
173 1 0.671356 0.2919 0.918773
174 1 0.357609 0.0816544 0.185724
175 1 0.678511 0.362337 0.975685
176 1 0.548931 0.51487 0.131052
177 1 0.690058 0.152908 0.970833
178 1 0.155163 0.478136 0.515914
179 1 0.68925 0.600486 0.342052
180 1 0.917556 0.716378 0.161433
181 1 0.491356 0.653663 0.595763
182 1 0.957671 0.521856 0.646816
183 1 0.502309 0.344228 0.34948
184 1 0.263251 0.183641 0.075516
185 1 0.87566 0.523463 0.53192
186 1 0.241179 0.754882 0.842525
187 1 0.728167 0.118881 0.20517
188 1 0.127827 0.12239 0.289246
189 1 0.211732 0.768742 0.551474
190 1 0.79767 0.848403 0.957953
191 1 0.86645 0.92952 0.45259
192 1 0.752683 0.32066 0.185616
193 1 0.0364271 0.0661398 0.898178
194 1 0.221021 0.712326 0.626896
195 1 0.547777 0.846245 0.322803
196 1 0.918489 0.076098 0.0486005
197 1 0.908665 0.635662 0.900652
198 1 0.773388 0.75806 0.373643
199 1 0.539766 0.743053 0.620215
200 1 0.915031 0.238197 0.0965981
201 1 0.574094 0.708008 0.980983
202 1 0.607328 0.734907 0.226759
203 1 0.427241 0.31996 0.523585
204 1 0.134052 0.335649 0.346183
205 1 0.670012 0.53777 0.235066
206 1 0.036428 0.688755 0.139087
207 1 0.451526 0.390975 0.26095
208 1 0.818653 0.15315 0.584486
209 1 0.151214 0.837789 0.879104
210 1 0.206868 0.83121 0.243786
211 1 0.753867 0.166199 0.879522
212 1 0.951721 0.77126 0.837516
213 1 0.796995 0.72515 0.273814
214 1 0.840152 0.135345 0.0946499
215 1 0.75019 0.697532 0.172691
216 1 0.753378 0.636413 0.259347
217 1 0.19151 0.357821 0.0476837
218 1 0.0208797 0.789788 0.650719
219 1 0.780138 0.411848 0.970054
220 1 0.124208 0.962552 0.52678
221 1 0.15713 0.344255 0.136467
222 1 0.164779 0.194299 0.825674
223 1 0.166093 0.941116 0.0367674
224 1 0.282008 0.435176 0.221231
225 1 0.533333 0.992066 0.602418
226 1 0.2778 0.141126 0.420879
227 1 0.308269 0.825882 0.293469
228 1 0.774228 0.378599 0.295617
229 1 0.00218594 0.238902 0.0703485
230 1 0.108184 0.0761674 0.363649
231 1 0.679711 0.76457 0.645517
232 1 0.981722 0.904137 0.672678
233 1 0.585242 0.197067 0.161348
234 1 0.332357 0.851851 0.198323
235 1 0.290015 0.549468 0.596145
236 1 0.529256 0.926425 0.3772
237 1 0.676414 0.738716 0.451266
238 1 0.383953 0.664627 0.186417
239 1 0.442372 0.219316 0.796136
240 1 0.973974 0.507951 0.283788
241 1 0.422586 0.837293 0.221513
242 1 0.243293 0.359557 0.758047
243 1 0.0477732 0.471383 0.740331
244 1 0.865796 0.819661 0.797103
245 1 0.610147 0.537266 0.320365
246 1 0.541449 0.339288 0.230429
247 1 0.301008 0.627061 0.782922
248 1 0.589907 0.944812 0.693126
249 1 0.913892 0.28838 0.183186
250 1 0.239337 0.821754 0.383154
251 1 0.159582 0.688835 0.393562
252 1 0.990414 0.314518 0.636161
253 1 0.501552 0.030255 0.0554856
254 1 0.346207 0.967463 0.917882
255 1 0.280369 0.588133 0.353182
256 1 0.261084 0.106512 0.242887
257 1 0.290343 0.53576 0.85988
258 1 0.392721 0.892568 0.724535
259 1 0.0884409 0.157767 0.453393
260 1 0.596559 0.35257 0.401097
261 1 0.195475 0.545566 0.938876
262 1 0.134865 0.0832873 0.506379
263 1 0.309282 0.727076 0.169081
264 1 0.758317 0.326298 0.508921
265 1 0.514001 0.647145 0.436765
266 1 0.334529 0.376298 0.768698
267 1 0.518553 0.517377 0.322493
268 1 0.810101 0.852225 0.373142
269 1 0.823279 0.0974563 0.302105
270 1 0.409037 0.0435909 0.748426
271 1 0.977876 0.0866884 0.186379
272 1 0.342684 0.255326 0.566141
273 1 0.537119 0.437372 0.182502
274 1 0.212061 0.986157 0.878764
275 1 0.748899 0.639293 0.434847
276 1 0.440371 0.158194 0.139785
277 1 0.991329 0.716665 0.232013
278 1 0.885678 0.617042 0.51101
279 1 0.843996 0.121448 0.901649
280 1 0.911604 0.282321 0.991286
281 1 0.793349 0.843983 0.740165
282 1 0.1365 0.433643 0.810821
283 1 0.317265 0.296878 0.940225
284 1 0.293599 0.173199 0.973908
285 1 0.605214 0.663649 0.0633686
286 1 0.320544 0.827808 0.894548
287 1 0.313956 0.948356 0.473192
288 1 0.945877 0.324246 0.808818
289 1 0.459498 0.484649 0.225352
290 1 0.680885 0.917681 0.629564
291 1 0.373405 0.141797 0.00198308
292 1 0.704645 0.536933 0.0602201
293 1 0.789505 0.111204 0.689466
294 1 0.477699 0.988246 0.446245
295 1 0.877896 0.573215 0.259215
296 1 0.581705 0.402233 0.774002
297 1 0.610313 0.570541 0.0394652
298 1 0.271374 0.90846 0.101105
299 1 0.0339259 0.236534 0.47309
300 1 0.42098 0.778529 0.10789
301 1 0.806811 0.934004 0.841317
302 1 0.689545 0.108954 0.729656
303 1 0.874915 0.469564 0.998703
304 1 0.470866 0.833596 0.379781
305 1 0.845056 0.112523 0.209864
306 1 0.479327 0.700317 0.018599
307 1 0.550167 0.6338 0.349398
308 1 0.296723 0.671252 0.0836126
309 1 0.802806 0.648615 0.539605
310 1 0.957867 0.668996 0.0754003
311 1 0.311646 0.261159 0.280095
312 1 0.833045 0.26377 0.429209
313 1 0.457497 0.662692 0.251526
314 1 0.0192941 0.414909 0.121052
315 1 0.706168 0.984385 0.361679
316 1 0.0674296 0.293067 0.704205
317 1 0.75695 0.967823 0.913561
318 1 0.933457 0.0621758 0.852842
319 1 0.640799 0.141358 0.627809
320 1 0.480826 0.00315897 0.258855
321 1 0.922524 0.863187 0.0998102
322 1 0.0666138 0.588496 0.992008
323 1 0.403909 0.433279 0.714148
324 1 0.245789 0.058367 0.963313
325 1 0.0756629 0.367303 0.180831
326 1 0.456536 0.719881 0.341641
327 1 0.328466 0.0908751 0.702343
328 1 0.618138 0.789859 0.377039
329 1 0.00387973 0.0445578 0.994959
330 1 0.860541 0.93661 0.746484
331 1 0.0401323 0.471419 0.0278802
332 1 0.450979 0.116672 0.651013
333 1 0.255395 0.738568 0.270422
334 1 0.631884 0.137086 0.218943
335 1 0.325264 0.207121 0.371033
336 1 0.992975 0.115257 0.659592
337 1 0.530078 0.345376 0.865841
338 1 0.738253 0.0985527 0.59414
339 1 0.304925 0.0804032 0.332679
340 1 0.457961 0.282438 0.0937773
341 1 0.0753195 0.481158 0.187924
342 1 0.828503 0.605292 0.985183
343 1 0.102988 0.275052 0.119597
344 1 0.257637 0.20993 0.833034
345 1 0.0424082 0.877666 0.340615
346 1 0.453689 0.614332 0.782401
347 1 0.298754 0.122918 0.825337
348 1 0.963779 0.516696 0.153611
349 1 0.661291 0.71553 0.978944
350 1 0.704386 0.686676 0.535464
351 1 0.445596 0.976632 0.0121399
352 1 0.604833 0.382393 0.13472
353 1 0.226386 0.553688 0.791746
354 1 0.266759 0.786908 0.687737
355 1 0.137423 0.530187 0.0168883
356 1 0.999612 0.39884 0.249462
357 1 0.671726 0.181418 0.438958
358 1 0.391951 0.789323 0.702164
359 1 0.568379 0.0656767 0.498748
360 1 0.095033 0.745353 0.92433
361 1 0.122593 0.219389 0.925825
362 1 0.931715 0.523673 0.421036
363 1 0.77495 0.811753 0.624467
364 1 0.618759 0.229449 0.734042
365 1 0.255183 0.155802 0.731426
366 1 0.00396011 0.375119 0.382272
367 1 0.394166 0.802896 0.34079
368 1 0.0460557 0.951056 0.969113
369 1 0.0760953 0.207086 0.656369
370 1 0.135563 0.541576 0.198806
371 1 0.676654 0.254133 0.201529
372 1 0.244514 0.953413 0.653431
373 1 0.97366 0.769507 0.543883
374 1 0.18584 0.424128 0.346739
375 1 0.20544 0.33103 0.419453
376 1 0.778994 0.8258 0.859051
377 1 0.879529 0.0314667 0.170527
378 1 0.461725 0.794149 0.765482
379 1 0.555255 0.132893 0.934195
380 1 0.74981 0.0741025 0.961239
381 1 0.746864 0.589285 0.158831
382 1 0.387066 0.660043 0.722014
383 1 0.343806 0.922547 0.56356
384 1 0.597843 0.0562504 0.173897
385 1 0.589185 0.874333 0.616236
386 1 0.697692 0.505374 0.318691
387 1 0.372386 0.107408 0.598457
388 1 0.632182 0.11177 0.321414
389 1 0.251831 0.313615 0.854906
390 1 0.527352 0.646472 0.685911
391 1 0.63049 0.877943 0.520344
392 1 0.512537 0.368304 0.125829
393 1 0.447306 0.527379 0.0741733
394 1 0.14581 0.779175 0.452065
395 1 0.0664895 0.781562 0.40191
396 1 0.141353 0.433131 0.671809
397 1 0.948318 0.284656 0.551742
398 1 0.606236 0.680479 0.830777
399 1 0.671418 0.896948 0.915178
400 1 0.943665 0.330649 0.920122
401 1 0.445004 0.430674 0.522512
402 1 0.321814 0.59061 0.69968
403 1 0.75125 0.255839 0.859799
404 1 0.621356 0.912007 0.171389
405 1 0.454238 0.553831 0.412688
406 1 0.338393 0.250081 0.470486
407 1 0.200199 0.325733 0.948738
408 1 0.516277 0.936524 0.826025
409 1 0.427912 0.0645477 0.959258
410 1 0.963201 0.411294 0.979318
411 1 0.932908 0.205897 0.915958
412 1 0.976155 0.620968 0.190449
413 1 0.106059 0.707686 0.306677
414 1 0.0974871 0.428993 0.301848
415 1 0.888379 0.706531 0.750465
416 1 0.791115 0.628718 0.0729801
417 1 0.21625 0.929733 0.306458
418 1 0.761212 0.540909 0.246039
419 1 0.290664 0.76509 0.994368
420 1 0.0369506 0.315428 0.867002
421 1 0.0417213 0.188064 0.93899
422 1 0.513332 0.705754 0.778968
423 1 0.406135 0.00480348 0.188143
424 1 0.971304 0.985102 0.907598
425 1 0.853817 0.532702 0.908938
426 1 0.449914 0.896077 0.295753
427 1 0.435359 0.15011 0.369013
428 1 0.594212 0.406203 0.948373
429 1 0.558837 0.0225169 0.403841
430 1 0.697496 0.790337 0.934531
431 1 0.352097 0.664369 0.323451
432 1 0.512659 0.246329 0.228818
433 1 0.529242 0.432269 0.56018
434 1 0.534605 0.983094 0.173786
435 1 0.313974 0.341239 0.481482
436 1 0.126953 0.0145582 0.703036
437 1 0.876265 0.822343 0.00502257
438 1 0.621139 0.698387 0.595618
439 1 0.00755916 0.689044 0.614359
440 1 0.527738 0.282821 0.539672
441 1 0.979749 0.881074 0.943523
442 1 0.0731473 0.401392 0.508313
443 1 0.519837 0.590415 0.0732984
444 1 0.328213 0.46801 0.0440764
445 1 0.821833 0.296027 0.342482
446 1 0.320757 0.472098 0.695957
447 1 0.154574 0.246322 0.470086
448 1 0.310565 0.0156463 0.844748
449 1 0.163242 0.166216 0.199475
450 1 0.710176 0.355139 0.111855
451 1 0.378755 0.32972 0.10786
452 1 0.64727 0.902113 0.327641
453 1 0.478789 0.721444 0.522021
454 1 0.945566 0.672745 0.305952
455 1 0.340856 0.0470115 0.980254
456 1 0.998955 0.371887 0.566082
457 1 0.578971 0.774292 0.793204
458 1 0.592868 0.693573 0.476245
459 1 0.773561 0.738593 0.938445
460 1 0.960129 0.966249 0.749875
461 1 0.105991 0.983034 0.892492
462 1 0.576068 0.240975 0.468619
463 1 0.12093 0.417964 0.413019
464 1 0.356731 0.414544 0.533494
465 1 0.765138 0.410316 0.655394
466 1 0.16534 0.574805 0.299094
467 1 0.927793 0.897824 0.209413
468 1 0.986815 0.130858 0.853735
469 1 0.908431 0.145553 0.624187
470 1 0.237363 0.618108 0.890308
471 1 0.829655 0.35206 0.903168
472 1 0.539374 0.86868 0.769283
473 1 0.761173 0.0521782 0.416955
474 1 0.901848 0.0249204 0.356147
475 1 0.811633 0.864056 0.225712
476 1 0.92288 0.98053 0.0105607
477 1 0.954693 0.565656 0.766667
478 1 0.348635 0.868751 0.641904
479 1 0.0431779 0.391789 0.664733
480 1 0.806003 0.465992 0.268459
481 1 0.39591 0.566149 0.943166
482 1 0.541481 0.71021 0.29642
483 1 0.386942 0.743215 0.247834
484 1 0.883631 0.856841 0.284874
485 1 0.127543 0.578769 0.861653
486 1 0.957495 0.642771 0.705054
487 1 0.180009 0.0946414 0.712102
488 1 0.710055 0.408207 0.512158
489 1 0.496096 0.439371 0.408062
490 1 0.0367233 0.318916 0.287653
491 1 0.047401 0.687243 0.41419
492 1 0.0920214 0.855702 0.648548
493 1 0.784442 0.46657 0.864634
494 1 0.972019 0.666814 0.49701
495 1 0.257923 0.679921 0.981301
496 1 0.0287343 0.835225 0.729606
497 1 0.225596 0.136547 0.900451
498 1 0.243221 0.194254 0.267822
499 1 0.0228172 0.0581878 0.278111
500 1 0.477416 0.0647046 0.154577
501 1 0.251595 0.815983 0.157092
502 1 0.0860007 0.38468 0.941241
503 1 0.203583 0.609831 0.196787
504 1 0.574506 0.946818 0.26568
505 1 0.575704 0.496657 0.894669
506 1 0.44151 0.970844 0.108803
507 1 0.834583 0.0972991 0.999914
508 1 0.136395 0.171798 0.560919
509 1 0.875523 0.981333 0.2577
510 1 0.738288 0.279521 0.281298
511 1 0.761468 0.740669 0.700322
512 1 0.0913506 0.950779 0.629349
513 1 0.177558 0.896242 0.126601
514 1 0.013636 0.992553 0.813889
515 1 0.814831 0.511139 0.696223
516 1 0.972893 0.812467 0.308894
517 1 0.0376584 0.384487 0.792658
518 1 0.145054 0.271447 0.598606
519 1 0.65827 0.381022 0.303488
520 1 0.717412 0.371987 0.381992
521 1 0.647803 0.606323 0.5346
522 1 0.533882 0.216303 0.840713
523 1 0.0944147 0.785338 0.565916
524 1 0.866956 0.753148 0.343194
525 1 0.840526 0.0290434 0.0871344
526 1 0.770546 0.506111 0.959798
527 1 0.125435 0.746813 0.825743
528 1 0.416108 0.0673419 0.851935
529 1 0.349007 0.00147445 0.071408
530 1 0.125542 0.38602 0.586266
531 1 0.150209 0.949838 0.214173
532 1 0.607572 0.825286 0.696995
533 1 0.806909 0.518289 0.42908
534 1 0.462793 0.9837 0.903955
535 1 0.554756 0.282537 0.14591
536 1 0.0150414 0.691594 0.953957
537 1 0.986651 0.820338 0.203239
538 1 0.347965 0.99489 0.666187
539 1 0.0020337 0.788685 0.929872
540 1 0.0647695 0.515709 0.823971
541 1 0.490709 0.507673 0.848012
542 1 0.183454 0.383622 0.232486
543 1 0.165285 0.14919 0.0954656
544 1 0.372288 0.282187 0.681778
545 1 0.51008 0.227344 0.935545
546 1 0.454417 0.953422 0.550563
547 1 0.116446 0.176617 0.742788
548 1 0.0125005 0.107116 0.355615
549 1 0.165377 0.0582044 0.190806
550 1 0.852094 0.273028 0.260436
551 1 0.857927 0.395004 0.701541
552 1 0.903552 0.954136 0.838136
553 1 0.546608 0.73036 0.386078
554 1 0.649821 0.538782 0.609297
555 1 0.276392 0.30487 0.119176
556 1 0.916569 0.388376 0.173277
557 1 0.639023 0.891142 0.760463
558 1 0.303235 0.609015 0.160455
559 1 0.126522 0.293181 0.0064173
560 1 0.855301 0.478649 0.160378
561 1 0.111803 0.623762 0.0723236
562 1 0.656649 0.661292 0.198298
563 1 0.672061 0.400091 0.703555
564 1 0.927928 0.140226 0.115264
565 1 0.0828478 0.876808 0.094142
566 1 0.532232 0.257892 0.650639
567 1 0.214134 0.428772 0.626269
568 1 0.0753028 0.543371 0.271799
569 1 0.850725 0.330032 0.505634
570 1 0.212153 0.471855 0.0568226
571 1 0.198908 0.559396 0.0845479
572 1 0.350917 0.397021 0.413235
573 1 0.200099 0.0827306 0.431497
574 1 0.723531 0.789825 0.214242
575 1 0.794067 0.924069 0.291942
576 1 0.384868 0.0139424 0.504874
577 1 0.608742 0.215651 0.965419
578 1 0.528611 0.895629 0.552539
579 1 0.866651 0.572436 0.621141
580 1 0.451138 0.615105 0.509581
581 1 0.847517 0.410864 0.0905305
582 1 0.124667 0.595061 0.670934
583 1 0.367662 0.720768 0.0219385
584 1 0.604396 0.510289 0.797931
585 1 0.642861 0.808476 0.175812
586 1 0.42938 0.879926 0.132148
587 1 0.0705278 0.308353 0.422407
588 1 0.67264 0.663409 0.76641
589 1 0.0760715 0.0100911 0.215725
590 1 0.515126 0.0366335 0.831606
591 1 0.825617 0.226616 0.0506178
592 1 0.350197 0.353098 0.307352
593 1 0.0832883 0.521895 0.464414
594 1 0.492307 0.877468 0.0563413
595 1 0.969247 0.255698 0.254959
596 1 0.226612 0.753804 0.0936849
597 1 0.995538 0.14162 0.0435845
598 1 0.308712 0.465788 0.791762
599 1 0.434463 0.622619 0.355144
600 1 0.274466 0.831265 0.475369
601 1 0.241832 0.908178 0.53821
602 1 0.901969 0.733785 0.480056
603 1 0.653266 0.00328744 0.282452
604 1 0.408726 0.478433 0.995146
605 1 0.124784 0.670359 0.874201
606 1 0.618833 0.996552 0.868197
607 1 0.787716 0.408744 0.15466
608 1 0.341616 0.227036 0.111829
609 1 0.821003 0.306957 0.599906
610 1 0.433724 0.805179 0.467278
611 1 0.385766 0.39025 0.975034
612 1 0.895548 0.176503 0.306148
613 1 0.0700549 0.843175 0.953367
614 1 0.809066 0.00406456 0.602793
615 1 0.0329172 0.611338 0.822384
616 1 0.809013 0.640758 0.905973
617 1 0.786447 0.183966 0.962687
618 1 0.946638 0.620864 0.589242
619 1 0.997036 0.908886 0.449983
620 1 0.876101 0.719504 0.844679
621 1 0.581476 0.325793 0.70431
622 1 0.415888 0.228014 0.413798
623 1 0.0444993 0.903999 0.234942
624 1 0.726942 0.657934 0.863118
625 1 0.749159 0.42383 0.0575022
626 1 0.499891 0.285196 0.416325
627 1 0.558098 0.52055 0.414782
628 1 0.351214 0.175196 0.281881
629 1 0.124754 0.628935 0.768522
630 1 0.371627 0.18614 0.663057
631 1 0.733395 0.687513 0.624626
632 1 0.00358628 0.161111 0.277263
633 1 0.491841 0.133204 0.851024
634 1 0.488743 0.810092 0.677048
635 1 0.715406 0.215176 0.786287
636 1 0.431069 0.699628 0.44302
637 1 0.654004 0.312499 0.496996
638 1 0.362939 0.386422 0.204648
639 1 0.884618 0.452581 0.631513
640 1 0.195921 0.175201 0.00918699
641 1 0.397067 0.264772 0.316378
642 1 0.973327 0.989697 0.209768
643 1 0.235878 0.228993 0.920094
644 1 0.530737 0.782488 0.447528
645 1 0.746863 0.238223 0.479662
646 1 0.146421 0.855344 0.380686
647 1 0.595093 0.134413 0.7644
648 1 0.466019 0.665276 0.110933
649 1 0.758329 0.300233 0.954023
650 1 0.512724 0.702522 0.901916
651 1 0.419487 0.919145 0.392524
652 1 0.190637 0.803935 0.775102
653 1 0.275399 0.974474 0.0136771
654 1 0.82874 0.295084 0.117967
655 1 0.216064 0.118506 0.330126
656 1 0.62321 0.954083 0.39907
657 1 0.595047 0.350668 0.04113
658 1 0.257151 0.846033 0.610489
659 1 0.797455 0.671028 0.749447
660 1 0.274328 0.0048382 0.256956
661 1 0.621855 0.251483 0.578503
662 1 0.174752 0.0744646 0.0437188
663 1 0.71647 0.194683 0.581584
664 1 0.543594 0.360208 0.619056
665 1 0.214158 0.425414 0.443037
666 1 0.127868 0.980342 0.393699
667 1 0.470748 0.344137 0.684618
668 1 0.00410171 0.305899 0.14982
669 1 0.625835 0.40208 0.861648
670 1 0.678018 0.744114 0.288081
671 1 0.0782065 0.0926941 0.770751
672 1 0.80484 0.202996 0.16305
673 1 0.434093 0.761216 0.606075
674 1 0.772595 0.44253 0.743619
675 1 0.469697 0.713923 0.691334
676 1 0.0361558 0.731512 0.0401394
677 1 0.413372 0.32422 0.767285
678 1 0.262231 0.0461589 0.760936
679 1 0.548637 0.592243 0.885366
680 1 0.873097 0.151928 0.403166
681 1 0.241296 0.915222 0.947296
682 1 0.000234389 0.57068 0.911318
683 1 0.651814 0.77168 0.526702
684 1 0.785018 0.198635 0.368914
685 1 0.263568 0.0611274 0.0516542
686 1 0.963981 0.345318 0.483444
687 1 0.555817 0.0452366 0.269524
688 1 0.769511 0.480969 0.5153
689 1 0.175128 0.194409 0.657986
690 1 0.293294 0.551466 0.0862705
691 1 0.544418 0.528237 0.5974
692 1 0.29817 0.0499788 0.427615
693 1 0.684437 0.791906 0.75434
694 1 0.92805 0.245715 0.464072
695 1 0.681754 0.565959 0.745741
696 1 0.0142738 0.216071 0.581089
697 1 0.966698 0.502669 0.850054
698 1 0.811375 0.83432 0.464586
699 1 0.624132 0.838263 0.850036
700 1 0.534185 0.183392 0.564614
701 1 0.129319 0.483171 0.888478
702 1 0.779446 0.879062 0.0861049
703 1 0.183033 0.099641 0.619578
704 1 0.892833 0.558097 0.0432078
705 1 0.599352 0.0524603 0.00497761
706 1 0.21576 0.63005 0.7148
707 1 0.333844 0.10672 0.503487
708 1 0.447803 0.156887 0.945829
709 1 0.640184 0.453596 0.397693
710 1 0.378452 0.271833 0.210377
711 1 0.601541 0.141988 0.0367714
712 1 0.422652 0.0201824 0.601354
713 1 0.325772 0.786905 0.407475
714 1 0.191741 0.621122 0.593318
715 1 0.0610046 0.80513 0.818354
716 1 0.186484 0.766054 0.32435
717 1 0.62766 0.157335 0.534983
718 1 0.510655 0.787862 0.951953
719 1 0.555526 0.530517 0.227928
720 1 0.435936 0.853175 0.560283
721 1 0.147285 0.0691086 0.873469
722 1 0.569573 0.626307 0.254621
723 1 0.701387 0.821974 0.418117
724 1 0.195881 0.256298 0.0686521
725 1 0.588443 0.864441 0.432606
726 1 0.904297 0.847582 0.44392
727 1 0.514737 0.370264 0.469705
728 1 0.22719 0.805495 0.94284
729 1 0.158132 0.0240906 0.952551
730 1 0.321779 0.114234 0.912252
731 1 0.0484756 0.479643 0.565084
732 1 0.578934 0.848685 0.960408
733 1 0.549755 0.650286 0.150915
734 1 0.455965 0.174378 0.275887
735 1 0.330098 0.977707 0.366386
736 1 0.177396 0.724832 0.0185519
737 1 0.116492 0.561331 0.553605
738 1 0.688039 0.439628 0.600321
739 1 0.141599 0.344419 0.761404
740 1 0.0094748 0.825086 0.469226
741 1 0.232369 0.396983 0.893183
742 1 0.850081 0.661737 0.221547
743 1 0.860104 0.520085 0.795515
744 1 0.558996 0.592858 0.503208
745 1 0.899502 0.173198 0.0170259
746 1 0.695172 0.176582 0.138961
747 1 0.0991407 0.198428 0.0317445
748 1 0.777117 0.0265427 0.227045
749 1 0.712076 0.939682 0.82634
750 1 0.978818 0.153922 0.431553
751 1 0.942389 0.450341 0.530599
752 1 0.54824 0.116496 0.11623
753 1 0.776694 0.333452 0.713343
754 1 0.325043 0.781541 0.548135
755 1 0.194072 0.431549 0.139656
756 1 0.0940149 0.0235663 0.0339196
757 1 0.73001 0.107182 0.357614
758 1 0.47616 0.571206 0.649779
759 1 0.894808 0.0575795 0.562609
760 1 0.361713 0.463826 0.25809
761 1 0.294647 0.932085 0.729711
762 1 0.446475 0.474954 0.626494
763 1 0.452996 0.250987 0.710121
764 1 0.290393 0.00325531 0.161884
765 1 0.472896 0.0278397 0.355295
766 1 0.202105 0.101922 0.810527
767 1 0.8738 0.617496 0.80815
768 1 0.898789 0.126066 0.788638
769 1 0.503135 0.500116 0.739146
770 1 0.894601 0.444557 0.905669
771 1 0.0154005 0.331595 0.0562368
772 1 0.499063 0.438782 0.94895
773 1 0.472432 0.392426 0.775623
774 1 0.740553 0.57675 0.595178
775 1 0.543054 0.13819 0.247513
776 1 0.287048 0.0256781 0.57565
777 1 0.608237 0.29182 0.827242
778 1 0.850207 0.22988 0.543292
779 1 0.0629354 0.731997 0.491792
780 1 0.637809 0.444147 0.047931
781 1 0.465343 0.120127 0.760929
782 1 0.313473 0.860832 0.981687
783 1 0.249457 0.0922164 0.139593
784 1 0.233133 0.337957 0.299943
785 1 0.916456 0.716599 0.973479
786 1 0.299332 0.714732 0.898899
787 1 0.911082 0.766236 0.646862
788 1 0.19228 0.991338 0.12142
789 1 0.983853 0.578249 0.0885042
790 1 0.799576 0.949878 0.993542
791 1 0.693954 0.199145 0.273939
792 1 0.49055 0.907743 0.657498
793 1 0.00970769 0.916024 0.150117
794 1 0.580619 0.435163 0.46974
795 1 0.0213822 0.616104 0.288399
796 1 0.654814 0.798697 0.0284798
797 1 0.933285 0.451568 0.0780365
798 1 0.388956 0.904332 0.482418
799 1 0.602528 0.442043 0.637065
800 1 0.0361501 0.869706 0.564557
801 1 0.0266756 0.0212637 0.700578
802 1 0.652029 0.0525983 0.424138
803 1 0.6764 0.301998 0.711716
804 1 0.861936 0.433228 0.484709
805 1 0.70347 0.555649 0.469798
806 1 0.284021 0.354516 0.67207
807 1 0.262919 0.229578 0.637143
808 1 0.37237 0.678413 0.608413
809 1 0.141737 0.53947 0.760236
810 1 0.987294 0.257455 0.765532
811 1 0.164031 0.51304 0.627984
812 1 0.131276 0.833161 0.0262781
813 1 0.598069 0.132268 0.424829
814 1 0.0755959 0.922747 0.721783
815 1 0.998693 0.792383 0.110078
816 1 0.443891 0.372355 0.0534503
817 1 0.522599 0.225388 0.329055
818 1 0.649006 0.0595088 0.930485
819 1 0.879454 0.949393 0.658796
820 1 0.726188 0.392364 0.888806
821 1 0.0856313 0.150621 0.857147
822 1 0.731172 0.0226105 0.0384982
823 1 0.848709 0.683442 0.67145
824 1 0.712634 0.765944 0.10684
825 1 0.267828 0.722816 0.487539
826 1 0.393585 0.47506 0.897681
827 1 0.386607 0.0172579 0.30478
828 1 0.420285 0.707948 0.828611
829 1 0.610502 0.0033323 0.776443
830 1 0.281972 0.57621 0.986356
831 1 0.971161 0.545068 0.519506
832 1 0.3515 0.598132 0.443423
833 1 0.599767 0.756318 0.89016
834 1 0.772198 0.959415 0.160626
835 1 0.877981 0.812284 0.900376
836 1 0.177806 0.589527 0.415771
837 1 0.314009 0.888321 0.372869
838 1 0.797068 0.51287 0.0654274
839 1 0.020145 0.283496 0.954638
840 1 0.225411 0.282888 0.538929
841 1 0.106618 0.868889 0.464637
842 1 0.786796 0.912113 0.649899
843 1 0.14973 0.303455 0.847842
844 1 0.261235 0.0535252 0.662798
845 1 0.537978 0.247474 0.0394022
846 1 0.123742 0.858868 0.192982
847 1 0.0820476 0.252055 0.798715
848 1 0.191271 0.681489 0.527094
849 1 0.494315 0.897114 0.948312
850 1 0.759609 0.0551208 0.131038
851 1 0.498528 0.882623 0.468828
852 1 0.688856 0.492258 0.684176
853 1 0.424305 0.0854046 0.249801
854 1 0.686368 0.443245 0.78858
855 1 0.471854 0.113525 0.533339
856 1 0.196855 0.270354 0.767734
857 1 0.608156 0.21112 0.362645
858 1 0.784059 0.572285 0.341148
859 1 0.282514 0.42403 0.320967
860 1 0.233895 0.195941 0.494454
861 1 0.306182 0.696788 0.678308
862 1 0.243742 0.540536 0.679626
863 1 0.430765 0.28353 0.878281
864 1 0.211426 0.55567 0.512879
865 1 0.174351 0.470468 0.261107
866 1 0.148888 0.290355 0.240097
867 1 0.535673 0.113738 0.350904
868 1 0.412991 0.080518 0.0544495
869 1 0.383816 0.0879859 0.416877
870 1 0.0183393 0.0636824 0.102997
871 1 0.517319 0.825966 0.852202
872 1 0.761601 0.772026 0.0296096
873 1 0.405882 0.623522 0.0207579
874 1 0.380785 0.374936 0.633945
875 1 0.974797 0.832601 0.0214706
876 1 0.277403 0.663224 0.576074
877 1 0.675001 0.0693294 0.51957
878 1 0.375571 0.50595 0.490302
879 1 0.183718 0.730413 0.185886
880 1 0.275921 0.698729 0.391755
881 1 0.558043 0.589652 0.770985
882 1 0.019788 0.434834 0.897402
883 1 0.278182 0.629987 0.250867
884 1 0.0858173 0.215534 0.21575
885 1 0.308132 0.919264 0.842764
886 1 0.917423 0.0855732 0.26366
887 1 0.63624 0.651912 0.916959
888 1 0.938805 0.579176 0.334282
889 1 0.67568 0.23436 0.0311814
890 1 0.914064 0.33585 0.0899794
891 1 0.624502 0.618618 0.422901
892 1 0.801358 0.0151583 0.738774
893 1 0.127734 0.514639 0.37642
894 1 0.12895 0.207657 0.326696
895 1 0.0673796 0.174123 0.124614
896 1 0.893222 0.0596246 0.669763
897 1 0.362501 0.699244 0.508887
898 1 0.618248 0.889536 0.0541163
899 1 0.38265 0.571357 0.622872
900 1 0.875656 0.504498 0.346549
901 1 0.966637 0.506432 0.977091
902 1 0.717661 0.632366 0.981037
903 1 0.865145 0.600529 0.719706
904 1 0.536809 0.447736 0.064805