LAMMPS (27 Jun 2024)
OMP_NUM_THREADS environment is not set. Defaulting to 1 thread. (src/comm.cpp:98)
  using 1 OpenMP thread(s) per MPI task
read_restart ${restart}
read_restart lj.restart.6000000
Reading restart file ...
  restart file = 27 Jun 2024, LAMMPS = 27 Jun 2024
  restoring atom style atomic from restart
  orthogonal box = (-5.1330156 -5.1330156 -5.1330156) to (5.1330156 5.1330156 5.1330156)
  1 by 1 by 1 MPI processor grid
  restoring pair style lj/cut from restart
  1000 atoms
  read_restart CPU = 0.001 seconds

neighbor 1.0 bin
neigh_modify check yes delay 0 every 1

thermo 5000
variable tot_pe equal pe
variable tot_vol  equal vol
variable tot_density equal density
thermo_style custom step step temp pe vol density

fix myfile all ave/time 10000 1 10000 v_tot_pe v_tot_vol v_tot_density file av_config_observables.dat


compute orient all orientorder/atom degrees 8 1 2 3 4 5 6 7 8 nnn NULL cutoff 2.5
compute poteng all pe/atom
dump           qdump all custom 10000 steinhardt.dat  id c_poteng c_orient[1] c_orient[2] c_orient[3] c_orient[4] c_orient[5] c_orient[6] c_orient[7] c_orient[8]
dump_modify    qdump sort id pbc yes

compute Q6 all reduce ave c_orient[6]
compute Press all pressure thermo_temp

fix 3 all ave/time 10000 1 10000 c_Q6 file q6.dat
fix 4 all ave/time 10000 1 10000 c_Press file virial_pressure.dat

# 5) Run
restart 1000000 lj.restart
fix 2 all npt temp 2.0 2.0 1.0 iso 11 11 5000
Resetting global fix info from restart file:
  fix style: npt, fix ID: 2

dump           trajdump all atom 10000 trajectory.lammpstrj
dump_modify    trajdump sort id pbc yes

timestep 0.0005
run ${time}
run 8000000
Generated 0 of 0 mixed pair_coeff terms from geometric mixing rule
All restart file global fix info was re-assigned
Neighbor list info ...
  update: every = 1 steps, delay = 0 steps, check = yes
  max neighbors/atom: 2000, page size: 100000
  master list distance cutoff = 3.5
  ghost atom cutoff = 3.5
  binsize = 1.75, bins = 6 6 6
  2 neighbor lists, perpetual/occasional/extra = 1 1 0
  (1) pair lj/cut, perpetual
      attributes: half, newton on
      pair build: half/bin/atomonly/newton
      stencil: half/bin/3d
      bin: standard
  (2) compute orientorder/atom, occasional
      attributes: full, newton on
      pair build: full/bin/atomonly
      stencil: full/bin/3d
      bin: standard
Per MPI rank memory allocation (min/avg/max) = 6.988 | 6.988 | 6.988 Mbytes
   Step        Step          Temp          PotEng         Volume        Density    
   6000000     6000000   2.0958243     -4.5601913      1081.9513      0.92425598   
   6005000     6005000   1.9314879     -4.523494       1082.2015      0.9240423    
   6010000     6010000   2.0419179     -4.4300284      1082.45        0.92383023   
   6015000     6015000   1.9552822     -4.5563543      1082.6968      0.92361963   
   6020000     6020000   2.0626921     -4.5704939      1082.9419      0.9234106    
   6025000     6025000   1.912542      -4.5674472      1083.1853      0.9232031    
   6030000     6030000   2.0233368     -4.5405015      1083.4269      0.92299721   
   6035000     6035000   1.9825814     -4.5459024      1083.6668      0.92279286   
   6040000     6040000   1.9939325     -4.5363927      1083.905       0.92259007   
   6045000     6045000   2.0056863     -4.5669151      1084.1415      0.92238881   
   6050000     6050000   2.0484225     -4.6541873      1084.3763      0.9221891    
   6055000     6055000   2.0390613     -4.5747982      1084.6094      0.92199093   
   6060000     6060000   1.9512066     -4.5271925      1084.8408      0.92179426   
   6065000     6065000   2.0461272     -4.6174483      1085.0705      0.92159914   
   6070000     6070000   1.9678048     -4.7025389      1085.2984      0.92140556   
   6075000     6075000   2.0714636     -4.5995709      1085.5246      0.92121357   
   6080000     6080000   1.990363      -4.6687027      1085.7491      0.92102308   
   6085000     6085000   2.0597398     -4.5353258      1085.9719      0.92083414   
   6090000     6090000   2.000199      -4.6538224      1086.193       0.92064668   
   6095000     6095000   2.0842691     -4.5781804      1086.4124      0.92046075   
   6100000     6100000   2.0851665     -4.4824774      1086.6303      0.92027622   
   6105000     6105000   2.0081744     -4.6833569      1086.8466      0.92009305   
   6110000     6110000   2.0596165     -4.5544784      1087.0612      0.91991139   
   6115000     6115000   1.9470595     -4.6610394      1087.2742      0.91973117   
   6120000     6120000   2.0074348     -4.54067        1087.4855      0.91955253   
   6125000     6125000   1.8738401     -4.5631815      1087.695       0.91937534   
   6130000     6130000   2.032843      -4.6221091      1087.9029      0.91919971   
   6135000     6135000   2.0337905     -4.5896875      1088.109       0.91902556   
   6140000     6140000   1.9839306     -4.6338643      1088.3135      0.91885289   
   6145000     6145000   2.00934       -4.569923       1088.5163      0.91868172   
   6150000     6150000   1.9570802     -4.5584201      1088.7174      0.91851201   
   6155000     6155000   1.9962297     -4.5061519      1088.9169      0.91834371   
   6160000     6160000   2.0278848     -4.6260119      1089.1149      0.91817677   
   6165000     6165000   1.9897629     -4.5494007      1089.3113      0.91801124   
   6170000     6170000   2.0319708     -4.68899        1089.5061      0.91784712   
   6175000     6175000   2.0279466     -4.4982685      1089.6992      0.91768442   
   6180000     6180000   1.9179712     -4.590926       1089.8908      0.91752308   
   6185000     6185000   2.0888983     -4.6900615      1090.0808      0.91736317   
   6190000     6190000   1.9152526     -4.6304491      1090.2692      0.91720468   
   6195000     6195000   2.0069527     -4.5756583      1090.4558      0.91704768   
   6200000     6200000   2.0479403     -4.6205679      1090.6409      0.91689208   
   6205000     6205000   1.943656      -4.6252469      1090.8244      0.91673785   
   6210000     6210000   2.0648553     -4.5947235      1091.0063      0.91658502   
   6215000     6215000   1.9505307     -4.7158471      1091.1867      0.91643349   
   6220000     6220000   1.9946385     -4.5662782      1091.3654      0.91628343   
   6225000     6225000   2.031212      -4.5838239      1091.5425      0.91613472   
   6230000     6230000   2.0067397     -4.6357743      1091.7182      0.91598731   
   6235000     6235000   2.0259359     -4.5503051      1091.8923      0.91584122   
   6240000     6240000   1.9900381     -4.640193       1092.065       0.91569643   
   6245000     6245000   2.0443874     -4.5318073      1092.2361      0.915553     
   6250000     6250000   1.9663118     -4.6936413      1092.4057      0.91541085   
   6255000     6255000   2.0394529     -4.5669318      1092.5737      0.91527008   
   6260000     6260000   1.9215919     -4.535099       1092.7402      0.91513057   
   6265000     6265000   1.9594592     -4.7186353      1092.9052      0.91499243   
   6270000     6270000   1.983744      -4.4852535      1093.0685      0.91485573   
   6275000     6275000   1.9580448     -4.6329892      1093.2304      0.91472025   
   6280000     6280000   1.9898263     -4.497447       1093.3908      0.91458609   
   6285000     6285000   1.9387139     -4.5314858      1093.5497      0.91445317   
   6290000     6290000   2.0750939     -4.5210225      1093.7072      0.91432152   
   6295000     6295000   1.980774      -4.5937268      1093.8633      0.91419103   
   6300000     6300000   2.0300985     -4.5318817      1094.018       0.91406176   
   6305000     6305000   1.9752703     -4.5305123      1094.1714      0.91393363   
   6310000     6310000   1.9763284     -4.5279471      1094.3234      0.91380668   
   6315000     6315000   2.0117304     -4.5223109      1094.474       0.91368091   
   6320000     6320000   1.9154168     -4.4721482      1094.6233      0.91355629   
   6325000     6325000   1.9930848     -4.5495545      1094.7712      0.91343286   
   6330000     6330000   2.0692962     -4.629156       1094.9178      0.91331059   
   6335000     6335000   1.9492265     -4.5433801      1095.063       0.91318947   
   6340000     6340000   2.0299973     -4.5697734      1095.2068      0.91306954   
   6345000     6345000   1.9209584     -4.6390612      1095.3494      0.91295073   
   6350000     6350000   2.0294426     -4.5726319      1095.4904      0.91283317   
   6355000     6355000   1.9296262     -4.4877031      1095.6302      0.91271673   
   6360000     6360000   2.0328974     -4.6258316      1095.7686      0.91260143   
   6365000     6365000   1.9893119     -4.5267888      1095.9057      0.91248729   
   6370000     6370000   1.9928184     -4.5572353      1096.0415      0.91237424   
   6375000     6375000   1.979084      -4.4874826      1096.176       0.91226228   
   6380000     6380000   1.9766641     -4.6126087      1096.3093      0.91215138   
   6385000     6385000   1.9916019     -4.4165937      1096.4412      0.91204161   
   6390000     6390000   1.9433023     -4.5584507      1096.5719      0.91193287   
   6395000     6395000   2.090305      -4.6204423      1096.7014      0.9118252    
   6400000     6400000   1.9764219     -4.7174867      1096.8297      0.91171858   
   6405000     6405000   2.0037122     -4.5042094      1096.9566      0.91161311   
   6410000     6410000   1.9660252     -4.5916863      1097.0823      0.91150867   
   6415000     6415000   2.0043508     -4.6112986      1097.2066      0.91140537   
   6420000     6420000   1.9810145     -4.5410224      1097.3296      0.9113032    
   6425000     6425000   1.9575999     -4.6476499      1097.4514      0.9112021    
   6430000     6430000   2.0324492     -4.5375437      1097.5718      0.91110209   
   6435000     6435000   1.9483737     -4.5998724      1097.6911      0.91100309   
   6440000     6440000   2.0477977     -4.4875946      1097.8092      0.91090514   
   6445000     6445000   2.0156018     -4.6419004      1097.926       0.91080816   
   6450000     6450000   2.1245613     -4.517238       1098.0417      0.91071219   
   6455000     6455000   1.9842775     -4.5045684      1098.1564      0.91061707   
   6460000     6460000   1.9419142     -4.5748626      1098.27        0.91052289   
   6465000     6465000   2.1032138     -4.5872708      1098.3824      0.91042973   
   6470000     6470000   2.0318358     -4.6102479      1098.4937      0.91033748   
   6475000     6475000   1.9287765     -4.5549609      1098.6039      0.9102462    
   6480000     6480000   2.0411408     -4.5656826      1098.7128      0.91015595   
   6485000     6485000   1.9922133     -4.6015533      1098.8206      0.91006665   
   6490000     6490000   2.0608992     -4.4921891      1098.9273      0.90997833   
   6495000     6495000   1.9480381     -4.5531303      1099.0329      0.90989091   
   6500000     6500000   2.0517459     -4.5308051      1099.1373      0.90980445   
   6505000     6505000   1.9888236     -4.5111931      1099.2407      0.9097189    
   6510000     6510000   1.9888686     -4.563313       1099.3429      0.90963426   
   6515000     6515000   2.0381369     -4.4940585      1099.4441      0.90955052   
   6520000     6520000   2.0425404     -4.6531451      1099.5443      0.90946765   
   6525000     6525000   2.0456339     -4.5197019      1099.6434      0.90938572   
   6530000     6530000   1.9545861     -4.5838663      1099.7414      0.90930465   
   6535000     6535000   2.0769885     -4.633353       1099.8384      0.9092245    
   6540000     6540000   2.040813      -4.4218427      1099.9343      0.90914521   
   6545000     6545000   1.9328108     -4.5543589      1100.0293      0.9090667    
   6550000     6550000   2.1319223     -4.5744167      1100.1232      0.9089891    
   6555000     6555000   1.9390349     -4.5622084      1100.2161      0.90891232   
   6560000     6560000   2.0244227     -4.4875531      1100.308       0.90883646   
   6565000     6565000   1.9094237     -4.5571103      1100.3989      0.9087614    
   6570000     6570000   2.0243878     -4.5582218      1100.4887      0.90868723   
   6575000     6575000   1.9586492     -4.5136778      1100.5775      0.90861391   
   6580000     6580000   1.9765004     -4.627654       1100.6652      0.90854146   
   6585000     6585000   2.0563373     -4.5969193      1100.7519      0.90846995   
   6590000     6590000   1.9290684     -4.6430137      1100.8375      0.90839929   
   6595000     6595000   1.9881585     -4.4530249      1100.922       0.90832955   
   6600000     6600000   2.0038239     -4.6846299      1101.0056      0.90826059   
   6605000     6605000   2.0256078     -4.4587001      1101.0881      0.9081925    
   6610000     6610000   1.9810025     -4.6477761      1101.1698      0.90812517   
   6615000     6615000   1.9883858     -4.5257229      1101.2504      0.90805873   
   6620000     6620000   2.002815      -4.616671       1101.3299      0.90799312   
   6625000     6625000   1.9385164     -4.6140179      1101.4084      0.90792841   
   6630000     6630000   2.0314008     -4.5415742      1101.4858      0.90786463   
   6635000     6635000   1.95551       -4.6452163      1101.5623      0.90780161   
   6640000     6640000   2.031577      -4.4929373      1101.6377      0.90773942   
   6645000     6645000   1.9925237     -4.6404829      1101.7123      0.90767797   
   6650000     6650000   2.080581      -4.4478988      1101.7859      0.90761733   
   6655000     6655000   1.9357778     -4.5098518      1101.8588      0.90755734   
   6660000     6660000   2.0765818     -4.5192652      1101.9307      0.90749809   
   6665000     6665000   2.0236463     -4.5772988      1102.0019      0.90743949   
   6670000     6670000   1.9453436     -4.5187408      1102.0722      0.9073816    
   6675000     6675000   2.0352135     -4.4564427      1102.1416      0.90732444   
   6680000     6680000   1.92066       -4.5111052      1102.2102      0.90726796   
   6685000     6685000   2.0383334     -4.5069934      1102.2779      0.90721221   
   6690000     6690000   1.9525434     -4.639362       1102.3448      0.90715715   
   6695000     6695000   2.0232367     -4.5288618      1102.4108      0.9071029    
   6700000     6700000   1.8670603     -4.6040634      1102.4759      0.90704935   
   6705000     6705000   2.0052516     -4.541192       1102.5399      0.90699664   
   6710000     6710000   2.0288883     -4.5935244      1102.6031      0.90694465   
   6715000     6715000   2.0000852     -4.5787977      1102.6655      0.90689337   
   6720000     6720000   1.9840037     -4.4967651      1102.7269      0.90684281   
   6725000     6725000   2.0431966     -4.6011315      1102.7876      0.9067929    
   6730000     6730000   2.0658655     -4.5013348      1102.8476      0.90674362   
   6735000     6735000   1.9751053     -4.5728244      1102.9068      0.90669492   
   6740000     6740000   2.1074136     -4.5469427      1102.9652      0.9066469    
   6745000     6745000   2.0058444     -4.6266814      1103.0229      0.90659949   
   6750000     6750000   2.0472313     -4.5722997      1103.0798      0.90655275   
   6755000     6755000   2.051789      -4.5317204      1103.1359      0.90650662   
   6760000     6760000   1.9726543     -4.5360308      1103.1913      0.90646109   
   6765000     6765000   1.9912474     -4.4744743      1103.2459      0.90641621   
   6770000     6770000   2.0599085     -4.6768193      1103.2998      0.90637194   
   6775000     6775000   2.0182021     -4.5071804      1103.3529      0.90632836   
   6780000     6780000   1.9484914     -4.5584805      1103.4052      0.90628539   
   6785000     6785000   1.9943675     -4.501138       1103.4567      0.90624311   
   6790000     6790000   1.886074      -4.5971812      1103.5074      0.90620143   
   6795000     6795000   1.9884942     -4.5263396      1103.5573      0.90616048   
   6800000     6800000   2.0063539     -4.6000609      1103.6063      0.90612019   
   6805000     6805000   1.9897737     -4.6115235      1103.6546      0.90608059   
   6810000     6810000   2.0167067     -4.5610095      1103.702       0.90604165   
   6815000     6815000   1.890412      -4.6164465      1103.7487      0.90600332   
   6820000     6820000   2.0683262     -4.5940303      1103.7945      0.90596572   
   6825000     6825000   1.8956937     -4.5436445      1103.8396      0.90592873   
   6830000     6830000   2.0364563     -4.4864633      1103.8839      0.90589239   
   6835000     6835000   1.9234664     -4.5375173      1103.9275      0.90585657   
   6840000     6840000   2.0708282     -4.4879095      1103.9704      0.90582135   
   6845000     6845000   1.9844073     -4.6266704      1104.0127      0.90578669   
   6850000     6850000   2.0695006     -4.5151422      1104.0542      0.90575266   
   6855000     6855000   2.0407157     -4.5618099      1104.095       0.90571914   
   6860000     6860000   1.9651517     -4.5885428      1104.1352      0.90568615   
   6865000     6865000   2.0452579     -4.4660024      1104.1748      0.90565375   
   6870000     6870000   1.9915957     -4.6114703      1104.2137      0.90562182   
   6875000     6875000   2.1305219     -4.4939098      1104.2519      0.90559048   
   6880000     6880000   1.9742349     -4.488295       1104.2896      0.90555955   
   6885000     6885000   1.9191637     -4.5062602      1104.3267      0.90552915   
   6890000     6890000   2.0296698     -4.5118258      1104.3631      0.90549929   
   6895000     6895000   2.0129488     -4.5837158      1104.3989      0.90546992   
   6900000     6900000   2.0207269     -4.5495193      1104.4341      0.90544109   
   6905000     6905000   2.0150358     -4.599894       1104.4686      0.90541277   
   6910000     6910000   2.0541902     -4.5834084      1104.5025      0.90538499   
   6915000     6915000   1.9985531     -4.5408665      1104.5358      0.90535772   
   6920000     6920000   1.9587076     -4.5292332      1104.5684      0.90533096   
   6925000     6925000   2.0252233     -4.509297       1104.6005      0.90530467   
   6930000     6930000   1.9535455     -4.5186579      1104.632       0.90527884   
   6935000     6935000   2.0868837     -4.4634356      1104.663       0.90525349   
   6940000     6940000   1.907496      -4.4335368      1104.6934      0.90522853   
   6945000     6945000   1.9633686     -4.5574037      1104.7233      0.90520408   
   6950000     6950000   2.0237348     -4.485366       1104.7525      0.90518012   
   6955000     6955000   1.9500311     -4.5663322      1104.7812      0.90515663   
   6960000     6960000   1.986171      -4.4664028      1104.8092      0.90513367   
   6965000     6965000   1.9811299     -4.6979936      1104.8366      0.9051112    
   6970000     6970000   1.9949044     -4.5299528      1104.8633      0.90508931   
   6975000     6975000   1.8796729     -4.5909362      1104.8894      0.90506794   
   6980000     6980000   1.9962951     -4.5049086      1104.9148      0.90504714   
   6985000     6985000   1.9207202     -4.5288023      1104.9396      0.9050268    
   6990000     6990000   2.0443086     -4.5992412      1104.9638      0.90500699   
   6995000     6995000   2.02088       -4.6329658      1104.9874      0.90498767   
   7000000     7000000   2.0446879     -4.4791213      1105.0104      0.90496883   
   7005000     7005000   2.0446539     -4.6639361      1105.033       0.90495039   
   7010000     7010000   2.0332678     -4.542354       1105.0549      0.9049324    
   7015000     7015000   1.9807817     -4.5955396      1105.0764      0.90491481   
   7020000     7020000   2.0590178     -4.5567217      1105.0974      0.90489765   
   7025000     7025000   1.9762792     -4.6324558      1105.1178      0.9048809    
   7030000     7030000   2.0549074     -4.4693663      1105.1377      0.90486463   
   7035000     7035000   1.9985754     -4.5868881      1105.1571      0.90484875   
   7040000     7040000   2.0089746     -4.4781712      1105.1759      0.9048333    
   7045000     7045000   2.018947      -4.5598186      1105.1943      0.90481825   
   7050000     7050000   1.9846313     -4.5415255      1105.2123      0.90480358   
   7055000     7055000   2.0003963     -4.4492961      1105.2297      0.90478931   
   7060000     7060000   2.0129817     -4.6445996      1105.2467      0.9047754    
   7065000     7065000   2.1182704     -4.441562       1105.2631      0.90476193   
   7070000     7070000   1.9338905     -4.4615248      1105.2792      0.90474875   
   7075000     7075000   2.0568766     -4.6463123      1105.2949      0.90473595   
   7080000     7080000   1.9568535     -4.4211519      1105.31        0.90472357   
   7085000     7085000   1.9614852     -4.5232813      1105.3247      0.90471156   
   7090000     7090000   1.9923969     -4.6369538      1105.3388      0.90469998   
   7095000     7095000   2.0340534     -4.6254342      1105.3524      0.90468887   
   7100000     7100000   1.9352458     -4.4556871      1105.3654      0.90467822   
   7105000     7105000   1.9522465     -4.648369       1105.3779      0.90466799   
   7110000     7110000   2.0112123     -4.5056401      1105.3898      0.90465821   
   7115000     7115000   2.0006218     -4.6455892      1105.4013      0.90464881   
   7120000     7120000   2.0487461     -4.5159125      1105.4124      0.90463979   
   7125000     7125000   2.005292      -4.6305783      1105.423       0.90463108   
   7130000     7130000   2.1453174     -4.4880092      1105.4331      0.90462279   
   7135000     7135000   2.0139737     -4.6337399      1105.443       0.90461475   
   7140000     7140000   2.0119049     -4.5334071      1105.4523      0.9046071    
   7145000     7145000   2.0150328     -4.6095448      1105.4612      0.90459979   
   7150000     7150000   1.9921515     -4.5514247      1105.4697      0.90459285   
   7155000     7155000   1.9941334     -4.5908453      1105.4777      0.9045863    
   7160000     7160000   1.9679176     -4.5637244      1105.4852      0.90458018   
   7165000     7165000   2.0102869     -4.568383       1105.4921      0.90457449   
   7170000     7170000   1.9374661     -4.6580328      1105.4986      0.90456919   
   7175000     7175000   2.0311879     -4.5591246      1105.5045      0.90456435   
   7180000     7180000   1.9018628     -4.5836033      1105.51        0.90455986   
   7185000     7185000   2.0811309     -4.572538       1105.515       0.90455579   
   7190000     7190000   1.9130454     -4.5368984      1105.5196      0.90455203   
   7195000     7195000   2.0469747     -4.4742078      1105.5237      0.90454864   
   7200000     7200000   1.9431283     -4.5240938      1105.5276      0.90454549   
   7205000     7205000   2.1160574     -4.4790417      1105.5311      0.90454266   
   7210000     7210000   2.0717127     -4.6776648      1105.5343      0.90454001   
   7215000     7215000   2.0019179     -4.5421941      1105.5371      0.9045377    
   7220000     7220000   2.0765058     -4.6348048      1105.5396      0.90453568   
   7225000     7225000   1.9457351     -4.5076327      1105.5417      0.90453395   
   7230000     7230000   2.1169511     -4.5260182      1105.5434      0.90453254   
   7235000     7235000   1.9873504     -4.599681       1105.5448      0.90453139   
   7240000     7240000   2.0688917     -4.4923594      1105.5458      0.90453059   
   7245000     7245000   1.9228597     -4.5563642      1105.5465      0.90453003   
   7250000     7250000   2.010268      -4.451669       1105.5467      0.90452984   
   7255000     7255000   1.8868758     -4.5350157      1105.5466      0.90452992   
   7260000     7260000   2.0815145     -4.5802445      1105.5461      0.90453033   
   7265000     7265000   1.8578382     -4.5432727      1105.5453      0.90453101   
   7270000     7270000   2.0319348     -4.5124387      1105.544       0.90453206   
   7275000     7275000   1.9418904     -4.5768313      1105.5424      0.90453339   
   7280000     7280000   2.1283335     -4.5731972      1105.5403      0.90453506   
   7285000     7285000   1.9998454     -4.5948695      1105.538       0.90453695   
   7290000     7290000   2.059558      -4.5411372      1105.5354      0.90453913   
   7295000     7295000   2.0444086     -4.6401575      1105.5324      0.90454153   
   7300000     7300000   2.0293312     -4.6020143      1105.5292      0.9045442    
   7305000     7305000   2.0272096     -4.4546271      1105.5256      0.90454715   
   7310000     7310000   1.9476344     -4.5594964      1105.5217      0.90455033   
   7315000     7315000   1.9690592     -4.4356434      1105.5174      0.90455382   
   7320000     7320000   1.9280997     -4.5742066      1105.5128      0.9045576    
   7325000     7325000   2.0220575     -4.5138145      1105.5078      0.9045617    
   7330000     7330000   1.8742394     -4.5478317      1105.5025      0.90456605   
   7335000     7335000   2.0226952     -4.5789309      1105.4967      0.90457076   
   7340000     7340000   1.9877254     -4.5994188      1105.4906      0.90457574   
   7345000     7345000   1.988775      -4.5452252      1105.4842      0.90458102   
   7350000     7350000   1.9837589     -4.5460002      1105.4774      0.90458658   
   7355000     7355000   1.9684362     -4.6710613      1105.4702      0.90459243   
   7360000     7360000   1.999978      -4.4868186      1105.4627      0.90459861   
   7365000     7365000   1.9050139     -4.5763017      1105.4548      0.90460503   
   7370000     7370000   2.0692954     -4.5834896      1105.4466      0.90461176   
   7375000     7375000   2.0116695     -4.6889384      1105.4381      0.9046187    
   7380000     7380000   2.0865253     -4.5422745      1105.4293      0.90462593   
   7385000     7385000   1.9956159     -4.5855411      1105.4202      0.90463334   
   7390000     7390000   2.141773      -4.4863964      1105.4109      0.90464097   
   7395000     7395000   2.006774      -4.5634638      1105.4014      0.90464873   
   7400000     7400000   2.0102127     -4.586118       1105.3917      0.90465671   
   7405000     7405000   2.0076326     -4.4750634      1105.3817      0.90466488   
   7410000     7410000   2.0069256     -4.5732938      1105.3715      0.90467323   
   7415000     7415000   2.0105648     -4.6078591      1105.361       0.90468182   
   7420000     7420000   1.9648874     -4.5006323      1105.3502      0.90469069   
   7425000     7425000   2.0017787     -4.5391595      1105.3391      0.90469978   
   7430000     7430000   2.0091637     -4.4938775      1105.3277      0.90470906   
   7435000     7435000   2.0905544     -4.6653019      1105.3162      0.90471851   
   7440000     7440000   2.03576       -4.6261259      1105.3044      0.90472814   
   7445000     7445000   2.0397792     -4.3876699      1105.2924      0.90473799   
   7450000     7450000   2.0022447     -4.580575       1105.2802      0.90474792   
   7455000     7455000   2.0431709     -4.5270134      1105.2679      0.90475805   
   7460000     7460000   1.9630328     -4.6367446      1105.2552      0.90476839   
   7465000     7465000   2.0033041     -4.4609064      1105.2423      0.904779     
   7470000     7470000   1.9624555     -4.5586349      1105.2291      0.90478978   
   7475000     7475000   1.9242525     -4.5786887      1105.2156      0.90480082   
   7480000     7480000   2.0177573     -4.4620679      1105.2018      0.9048121    
   7485000     7485000   1.9260098     -4.5782433      1105.1879      0.90482351   
   7490000     7490000   2.0044689     -4.5618094      1105.1736      0.90483519   
   7495000     7495000   2.0335799     -4.519583       1105.1591      0.90484707   
   7500000     7500000   2.0309159     -4.6661093      1105.1444      0.90485909   
   7505000     7505000   2.0527747     -4.6231066      1105.1295      0.90487133   
   7510000     7510000   1.9343367     -4.5526398      1105.1143      0.90488378   
   7515000     7515000   1.9940865     -4.5332486      1105.0988      0.90489648   
   7520000     7520000   1.9959889     -4.5818751      1105.083       0.9049094    
   7525000     7525000   1.9509849     -4.5378901      1105.0669      0.90492255   
   7530000     7530000   2.052774      -4.6640885      1105.0506      0.90493596   
   7535000     7535000   2.0549076     -4.6158821      1105.0339      0.90494963   
   7540000     7540000   2.0100474     -4.5553644      1105.017       0.90496347   
   7545000     7545000   1.950937      -4.496364       1104.9999      0.90497749   
   7550000     7550000   2.0481278     -4.4623642      1104.9825      0.90499167   
   7555000     7555000   1.9948113     -4.583628       1104.9651      0.90500594   
   7560000     7560000   2.1124473     -4.5143537      1104.9475      0.9050204    
   7565000     7565000   2.0358777     -4.6787294      1104.9297      0.90503492   
   7570000     7570000   2.0331414     -4.5530109      1104.9118      0.90504962   
   7575000     7575000   2.0166193     -4.5186326      1104.8937      0.90506445   
   7580000     7580000   1.9676532     -4.5436133      1104.8755      0.90507937   
   7585000     7585000   2.0529742     -4.4918732      1104.857       0.9050945    
   7590000     7590000   1.9868675     -4.6641232      1104.8384      0.90510974   
   7595000     7595000   2.0347745     -4.4890212      1104.8195      0.90512521   
   7600000     7600000   1.9876777     -4.5828357      1104.8005      0.90514079   
   7605000     7605000   2.1024531     -4.5125313      1104.7813      0.90515654   
   7610000     7610000   1.9670869     -4.5539857      1104.7619      0.90517238   
   7615000     7615000   2.0614432     -4.5912098      1104.7424      0.9051884    
   7620000     7620000   2.0176036     -4.5484475      1104.7227      0.90520452   
   7625000     7625000   1.9689101     -4.5222225      1104.7029      0.90522075   
   7630000     7630000   2.0647234     -4.6024864      1104.6829      0.90523714   
   7635000     7635000   1.9748581     -4.5501846      1104.6628      0.90525366   
   7640000     7640000   2.0263759     -4.5792037      1104.6424      0.90527035   
   7645000     7645000   2.031825      -4.6099265      1104.6218      0.9052872    
   7650000     7650000   2.0130959     -4.539322       1104.6011      0.90530422   
   7655000     7655000   1.9926352     -4.5125289      1104.5802      0.90532134   
   7660000     7660000   2.0250096     -4.6057865      1104.5592      0.90533854   
   7665000     7665000   2.039924      -4.4914839      1104.5381      0.90535586   
   7670000     7670000   1.9742056     -4.5756268      1104.5168      0.90537326   
   7675000     7675000   2.1175931     -4.5412076      1104.4954      0.90539083   
   7680000     7680000   1.9880721     -4.5847714      1104.4739      0.90540845   
   7685000     7685000   2.0156786     -4.5199834      1104.4523      0.90542618   
   7690000     7690000   1.977691      -4.6277094      1104.4305      0.90544402   
   7695000     7695000   2.0771816     -4.6050157      1104.4085      0.90546208   
   7700000     7700000   1.971531      -4.5092119      1104.3863      0.90548027   
   7705000     7705000   1.9219268     -4.5163633      1104.3639      0.90549859   
   7710000     7710000   2.0364381     -4.4939368      1104.3414      0.90551707   
   7715000     7715000   1.964117      -4.5952487      1104.3188      0.90553565   
   7720000     7720000   2.0125726     -4.5731254      1104.2959      0.90555442   
   7725000     7725000   1.9534215     -4.5332645      1104.2728      0.90557333   
   7730000     7730000   2.0592414     -4.572653       1104.2496      0.90559239   
   7735000     7735000   1.970554      -4.6511845      1104.2262      0.90561156   
   7740000     7740000   2.0530261     -4.540684       1104.2026      0.90563093   
   7745000     7745000   1.9951969     -4.6320201      1104.1788      0.90565043   
   7750000     7750000   2.0863029     -4.4806174      1104.1548      0.90567008   
   7755000     7755000   2.0248149     -4.6212545      1104.1308      0.90568977   
   7760000     7760000   2.01076       -4.5278606      1104.1067      0.90570958   
   7765000     7765000   2.041746      -4.5719556      1104.0825      0.90572946   
   7770000     7770000   2.0420895     -4.6463537      1104.0581      0.9057494    
   7775000     7775000   2.0444049     -4.4851971      1104.0337      0.90576948   
   7780000     7780000   1.940188      -4.6039672      1104.0091      0.90578963   
   7785000     7785000   2.0243681     -4.526056       1103.9843      0.90580996   
   7790000     7790000   1.99146       -4.5496389      1103.9594      0.90583038   
   7795000     7795000   1.9342444     -4.5509524      1103.9344      0.9058509    
   7800000     7800000   2.0711004     -4.5386576      1103.9092      0.90587158   
   7805000     7805000   1.9710527     -4.5696833      1103.8839      0.90589233   
   7810000     7810000   1.9967466     -4.526579       1103.8585      0.90591319   
   7815000     7815000   1.978049      -4.5227916      1103.833       0.90593414   
   7820000     7820000   1.9900087     -4.5750201      1103.8073      0.9059552    
   7825000     7825000   1.9427403     -4.4066865      1103.7816      0.90597637   
   7830000     7830000   1.9653847     -4.5403013      1103.7557      0.90599761   
   7835000     7835000   2.0233662     -4.5475429      1103.7296      0.90601897   
   7840000     7840000   1.9625503     -4.5854965      1103.7035      0.90604044   
   7845000     7845000   2.0217796     -4.5684729      1103.6771      0.90606207   
   7850000     7850000   1.8832065     -4.5831255      1103.6507      0.9060838    
   7855000     7855000   2.0641022     -4.5902009      1103.624       0.90610572   
   7860000     7860000   1.9640464     -4.5925617      1103.5972      0.90612773   
   7865000     7865000   1.9877453     -4.5721656      1103.5701      0.90614993   
   7870000     7870000   2.0054741     -4.6009985      1103.5429      0.90617229   
   7875000     7875000   2.0153836     -4.6263044      1103.5155      0.90619479   
   7880000     7880000   1.9914606     -4.4994049      1103.488       0.9062174    
   7885000     7885000   1.9259629     -4.5286777      1103.4603      0.90624009   
   7890000     7890000   2.0482623     -4.562738       1103.4326      0.90626291   
   7895000     7895000   1.9366866     -4.6462055      1103.4047      0.90628578   
   7900000     7900000   2.0077704     -4.5276846      1103.3766      0.90630885   
   7905000     7905000   2.0207899     -4.5833548      1103.3485      0.90633198   
   7910000     7910000   1.9153107     -4.5952147      1103.3202      0.9063552    
   7915000     7915000   1.959526      -4.4315988      1103.2917      0.90637859   
   7920000     7920000   1.9746968     -4.7067509      1103.2632      0.90640202   
   7925000     7925000   1.9517489     -4.5235948      1103.2344      0.90642565   
   7930000     7930000   1.9950106     -4.5231761      1103.2055      0.90644943   
   7935000     7935000   1.913877      -4.6195383      1103.1765      0.9064733    
   7940000     7940000   2.0253619     -4.5178017      1103.1472      0.90649735   
   7945000     7945000   1.9231693     -4.6044645      1103.1179      0.90652144   
   7950000     7950000   2.0187235     -4.4823102      1103.0884      0.90654565   
   7955000     7955000   1.940229      -4.5887601      1103.0589      0.90656988   
   7960000     7960000   2.0142466     -4.4246737      1103.0293      0.90659425   
   7965000     7965000   1.9174314     -4.4984074      1102.9996      0.90661863   
   7970000     7970000   2.0580082     -4.466901       1102.9698      0.9066431    
   7975000     7975000   1.9803582     -4.4626515      1102.9401      0.90666752   
   7980000     7980000   2.0948188     -4.7262211      1102.9105      0.90669192   
   7985000     7985000   2.0479155     -4.481377       1102.8807      0.90671637   
   7990000     7990000   1.982995      -4.5829964      1102.851       0.90674082   
   7995000     7995000   2.0839022     -4.535511       1102.8212      0.90676534   
   8000000     8000000   1.9424151     -4.6074635      1102.7913      0.90678985   
   8005000     8005000   2.0667216     -4.566319       1102.7614      0.90681448   
   8010000     8010000   1.9953983     -4.5793676      1102.7314      0.90683914   
   8015000     8015000   2.0177213     -4.5901471      1102.7013      0.90686389   
   8020000     8020000   2.0663015     -4.542289       1102.6712      0.90688867   
   8025000     8025000   1.9900634     -4.5821496      1102.6411      0.90691342   
   8030000     8030000   2.0957928     -4.4919353      1102.6109      0.90693821   
   8035000     8035000   1.9440337     -4.5260479      1102.5809      0.90696296   
   8040000     8040000   2.0996203     -4.5532742      1102.5507      0.90698776   
   8045000     8045000   1.907932      -4.5358696      1102.5206      0.90701253   
   8050000     8050000   2.0405654     -4.4951439      1102.4904      0.90703737   
   8055000     8055000   1.9297999     -4.6487409      1102.4602      0.90706221   
   8060000     8060000   2.0127194     -4.4935949      1102.4299      0.90708717   
   8065000     8065000   1.9171054     -4.5966713      1102.3995      0.90711216   
   8070000     8070000   2.0041595     -4.5617801      1102.369       0.90713727   
   8075000     8075000   2.0609784     -4.6179183      1102.3384      0.90716244   
   8080000     8080000   1.961117      -4.5487556      1102.3078      0.90718767   
   8085000     8085000   2.059036      -4.6041039      1102.277       0.90721297   
   8090000     8090000   1.8622444     -4.6244469      1102.2462      0.90723834   
   8095000     8095000   1.9945921     -4.4866575      1102.2151      0.9072639    
   8100000     8100000   1.9103801     -4.5042705      1102.184       0.90728951   
   8105000     8105000   2.0481965     -4.4994441      1102.1528      0.90731517   
   8110000     8110000   1.9363781     -4.5199668      1102.1217      0.90734084   
   8115000     8115000   1.9938256     -4.5464575      1102.0904      0.90736654   
   8120000     8120000   2.0078346     -4.5638347      1102.0592      0.90739229   
   8125000     8125000   2.0307582     -4.5703677      1102.0279      0.90741806   
   8130000     8130000   2.0400901     -4.6795908      1101.9966      0.90744383   
   8135000     8135000   1.9926699     -4.5163942      1101.9652      0.90746969   
   8140000     8140000   2.0089986     -4.6512658      1101.9337      0.90749559   
   8145000     8145000   2.0059301     -4.5903856      1101.9022      0.90752155   
   8150000     8150000   1.9911372     -4.4686685      1101.8706      0.90754759   
   8155000     8155000   1.933047      -4.5817178      1101.8389      0.90757367   
   8160000     8160000   2.0713837     -4.5250537      1101.8072      0.90759984   
   8165000     8165000   1.9782154     -4.5351991      1101.7754      0.90762599   
   8170000     8170000   2.0301354     -4.6194623      1101.7436      0.90765217   
   8175000     8175000   2.0589467     -4.5753135      1101.7118      0.9076784    
   8180000     8180000   1.9413588     -4.5927737      1101.68        0.90770461   
   8185000     8185000   2.0635913     -4.5987435      1101.6481      0.9077309    
   8190000     8190000   1.9619531     -4.5532783      1101.6161      0.90775723   
   8195000     8195000   2.0322386     -4.5852014      1101.5841      0.90778362   
   8200000     8200000   2.0001925     -4.5931043      1101.552       0.90781004   
   8205000     8205000   2.0137465     -4.6338948      1101.5199      0.90783651   
   8210000     8210000   1.9860236     -4.5290347      1101.4877      0.90786305   
   8215000     8215000   1.9054179     -4.6056166      1101.4555      0.90788965   
   8220000     8220000   2.031207      -4.5511315      1101.423       0.90791637   
   8225000     8225000   1.9008868     -4.5542591      1101.3906      0.90794308   
   8230000     8230000   1.9992383     -4.4663894      1101.3581      0.90796986   
   8235000     8235000   1.9425893     -4.5459184      1101.3256      0.90799666   
   8240000     8240000   2.1738514     -4.5769407      1101.2931      0.9080235    
   8245000     8245000   2.0228806     -4.6445289      1101.2606      0.90805026   
   8250000     8250000   2.0833456     -4.580271       1101.2281      0.90807705   
   8255000     8255000   2.0009407     -4.6239808      1101.1957      0.9081038    
   8260000     8260000   2.0131281     -4.5047826      1101.1633      0.90813054   
   8265000     8265000   1.9450677     -4.584885       1101.1309      0.90815725   
   8270000     8270000   2.0281543     -4.5493358      1101.0985      0.90818398   
   8275000     8275000   1.9988438     -4.5469237      1101.0661      0.90821071   
   8280000     8280000   2.0221398     -4.6021519      1101.0337      0.90823743   
   8285000     8285000   2.0053338     -4.5583726      1101.0013      0.90826418   
   8290000     8290000   1.9453873     -4.5956342      1100.9688      0.90829097   
   8295000     8295000   2.0061002     -4.4213282      1100.9362      0.90831783   
   8300000     8300000   1.963652      -4.5203578      1100.9037      0.90834463   
   8305000     8305000   2.0079955     -4.5487397      1100.8713      0.90837141   
   8310000     8310000   1.9968681     -4.6616578      1100.8388      0.90839821   
   8315000     8315000   2.0287898     -4.5083882      1100.8063      0.90842505   
   8320000     8320000   1.9720523     -4.570291       1100.7738      0.90845186   
   8325000     8325000   2.0449713     -4.5703389      1100.7413      0.9084787    
   8330000     8330000   1.9662531     -4.6172661      1100.7088      0.90850553   
   8335000     8335000   2.082485      -4.5570137      1100.6762      0.9085324    
   8340000     8340000   1.9437503     -4.5022357      1100.6437      0.90855924   
   8345000     8345000   1.9754415     -4.53375        1100.6112      0.9085861    
   8350000     8350000   2.0002687     -4.6098009      1100.5786      0.90861298   
   8355000     8355000   1.9808162     -4.5515697      1100.546       0.90863991   
   8360000     8360000   2.0017072     -4.5179155      1100.5133      0.90866688   
   8365000     8365000   1.9389587     -4.6066026      1100.4807      0.90869384   
   8370000     8370000   1.9871707     -4.4960519      1100.4479      0.90872091   
   8375000     8375000   1.9235288     -4.6757392      1100.4151      0.90874798   
   8380000     8380000   2.0055366     -4.5582172      1100.3822      0.90877515   
   8385000     8385000   1.9499968     -4.5722839      1100.3493      0.90880236   
   8390000     8390000   2.0640061     -4.5777849      1100.3163      0.90882961   
   8395000     8395000   1.9806908     -4.6020881      1100.2833      0.90885682   
   8400000     8400000   1.9666888     -4.5699198      1100.2504      0.90888403   
   8405000     8405000   2.0140239     -4.4798335      1100.2174      0.90891129   
   8410000     8410000   2.0024923     -4.7002268      1100.1844      0.90893852   
   8415000     8415000   2.0237115     -4.4834431      1100.1514      0.9089658    
   8420000     8420000   1.9718314     -4.5369109      1100.1184      0.90899303   
   8425000     8425000   2.0035458     -4.372849       1100.0855      0.90902024   
   8430000     8430000   1.9818223     -4.4940821      1100.0527      0.90904734   
   8435000     8435000   1.9032434     -4.5066134      1100.02        0.9090744    
   8440000     8440000   2.0239203     -4.4642103      1099.9872      0.9091015    
   8445000     8445000   2.0422536     -4.658569       1099.9545      0.90912853   
   8450000     8450000   1.9913061     -4.4923885      1099.9218      0.90915558   
   8455000     8455000   1.9991448     -4.5567728      1099.8891      0.90918259   
   8460000     8460000   2.0153502     -4.5894911      1099.8564      0.90920957   
   8465000     8465000   2.0438001     -4.5083811      1099.8238      0.90923653   
   8470000     8470000   1.9652562     -4.5354424      1099.7913      0.90926341   
   8475000     8475000   2.0264739     -4.5282295      1099.7588      0.90929028   
   8480000     8480000   1.9950304     -4.6012354      1099.7263      0.90931713   
   8485000     8485000   1.9855577     -4.4906683      1099.6938      0.909344     
   8490000     8490000   1.9379144     -4.6377307      1099.6614      0.90937086   
   8495000     8495000   2.041772      -4.5678529      1099.6288      0.90939781   
   8500000     8500000   1.9885687     -4.7502038      1099.5962      0.90942474   
   8505000     8505000   2.0735955     -4.6189878      1099.5636      0.90945174   
   8510000     8510000   1.985547      -4.5994845      1099.531       0.90947868   
   8515000     8515000   2.0433086     -4.5938944      1099.4984      0.90950565   
   8520000     8520000   1.9618193     -4.5289642      1099.4658      0.90953263   
   8525000     8525000   2.0047142     -4.605117       1099.4332      0.9095596    
   8530000     8530000   1.9513467     -4.4881207      1099.4005      0.9095866    
   8535000     8535000   2.1405039     -4.6526171      1099.3679      0.90961358   
   8540000     8540000   1.9791713     -4.6427785      1099.3354      0.90964049   
   8545000     8545000   2.1353679     -4.5844881      1099.3029      0.90966742   
   8550000     8550000   2.027118      -4.6939106      1099.2705      0.90969424   
   8555000     8555000   2.035379      -4.5424938      1099.2381      0.90972105   
   8560000     8560000   1.8968168     -4.5415506      1099.2057      0.90974784   
   8565000     8565000   1.9707906     -4.5309208      1099.1733      0.90977464   
   8570000     8570000   1.9805256     -4.5250677      1099.1409      0.90980145   
   8575000     8575000   1.9675698     -4.6468164      1099.1085      0.90982829   
   8580000     8580000   1.9405471     -4.4619772      1099.076       0.90985519   
   8585000     8585000   1.9401716     -4.588726       1099.0435      0.90988209   
   8590000     8590000   2.0122619     -4.504791       1099.011       0.90990901   
   8595000     8595000   1.971283      -4.6422371      1098.9785      0.90993593   
   8600000     8600000   2.0486119     -4.5556139      1098.9459      0.90996287   
   8605000     8605000   1.8918142     -4.4532523      1098.9135      0.90998975   
   8610000     8610000   2.0935507     -4.5436527      1098.881       0.91001662   
   8615000     8615000   1.9862746     -4.5752884      1098.8487      0.91004336   
   8620000     8620000   2.0669087     -4.4700548      1098.8165      0.9100701    
   8625000     8625000   1.9861388     -4.5615465      1098.7843      0.9100967    
   8630000     8630000   2.0276003     -4.562362       1098.7523      0.91012326   
   8635000     8635000   2.0825692     -4.6478922      1098.7203      0.91014976   
   8640000     8640000   2.0240481     -4.5988719      1098.6883      0.91017622   
   8645000     8645000   1.9744094     -4.4674161      1098.6564      0.91020266   
   8650000     8650000   1.9317523     -4.5555237      1098.6245      0.91022907   
   8655000     8655000   2.0437199     -4.5793588      1098.5927      0.91025549   
   8660000     8660000   1.967868      -4.5840839      1098.5608      0.9102819    
   8665000     8665000   1.9961885     -4.541446       1098.5289      0.91030832   
   8670000     8670000   1.9446364     -4.6889787      1098.497       0.91033475   
   8675000     8675000   2.0400332     -4.5383698      1098.465       0.91036128   
   8680000     8680000   1.9403073     -4.5939392      1098.433       0.91038777   
   8685000     8685000   2.0583125     -4.5353615      1098.401       0.91041429   
   8690000     8690000   1.9956913     -4.6640834      1098.3691      0.91044075   
   8695000     8695000   2.0720154     -4.5940619      1098.3371      0.91046725   
   8700000     8700000   2.1401633     -4.5381131      1098.3053      0.91049365   
   8705000     8705000   1.9900854     -4.6444056      1098.2737      0.91051985   
   8710000     8710000   2.0633808     -4.5329317      1098.2421      0.91054607   
   8715000     8715000   1.9182249     -4.6069198      1098.2105      0.91057222   
   8720000     8720000   2.0792693     -4.5954671      1098.1789      0.91059843   
   8725000     8725000   1.946946      -4.5849995      1098.1474      0.91062455   
   8730000     8730000   2.001041      -4.557413       1098.1159      0.91065068   
   8735000     8735000   2.0240862     -4.5896425      1098.0844      0.91067679   
   8740000     8740000   1.8798984     -4.6924699      1098.053       0.91070288   
   8745000     8745000   1.9667044     -4.5401678      1098.0213      0.91072914   
   8750000     8750000   1.9230734     -4.4226357      1097.9896      0.91075542   
   8755000     8755000   1.9486688     -4.5784362      1097.958       0.91078167   
   8760000     8760000   1.9847159     -4.5158811      1097.9263      0.91080794   
   8765000     8765000   1.9666012     -4.6010202      1097.8947      0.91083415   
   8770000     8770000   2.1211455     -4.6027438      1097.8631      0.91086039   
   8775000     8775000   1.9884554     -4.6628812      1097.8316      0.91088654   
   8780000     8780000   2.0139555     -4.5306615      1097.8         0.9109127    
   8785000     8785000   1.9737243     -4.6129788      1097.7686      0.9109388    
   8790000     8790000   1.9858204     -4.4866262      1097.7371      0.9109649    
   8795000     8795000   1.9109515     -4.5037072      1097.7057      0.91099098   
   8800000     8800000   2.0127624     -4.5975596      1097.6743      0.91101706   
   8805000     8805000   2.0385571     -4.5706769      1097.6429      0.91104311   
   8810000     8810000   1.9459413     -4.5921929      1097.6116      0.91106913   
   8815000     8815000   2.0034642     -4.5160067      1097.5802      0.91109516   
   8820000     8820000   1.8885337     -4.4738938      1097.5489      0.91112113   
   8825000     8825000   2.0518299     -4.5459634      1097.5176      0.91114708   
   8830000     8830000   1.9815642     -4.5774749      1097.4865      0.91117293   
   8835000     8835000   2.0542969     -4.5526291      1097.4554      0.91119879   
   8840000     8840000   1.9622912     -4.5368108      1097.4243      0.91122456   
   8845000     8845000   2.0035972     -4.5576809      1097.3933      0.9112503    
   8850000     8850000   2.0528023     -4.5468466      1097.3624      0.91127599   
   8855000     8855000   2.0322587     -4.6693329      1097.3316      0.91130158   
   8860000     8860000   2.0608528     -4.5182126      1097.3008      0.91132716   
   8865000     8865000   1.9818393     -4.6490448      1097.2701      0.91135265   
   8870000     8870000   2.0547709     -4.608721       1097.2394      0.91137816   
   8875000     8875000   1.9990171     -4.6383824      1097.2087      0.91140363   
   8880000     8880000   1.9861331     -4.5869839      1097.178       0.91142915   
   8885000     8885000   1.9813493     -4.5020065      1097.1473      0.91145468   
   8890000     8890000   1.9562585     -4.6991599      1097.1165      0.91148019   
   8895000     8895000   1.999103      -4.5120563      1097.0857      0.91150578   
   8900000     8900000   1.9745498     -4.6420829      1097.055       0.91153132   
   8905000     8905000   2.0148303     -4.4351039      1097.0242      0.91155689   
   8910000     8910000   1.9658849     -4.5993961      1096.9936      0.91158233   
   8915000     8915000   2.0426911     -4.6140785      1096.963       0.91160777   
   8920000     8920000   2.079244      -4.4294328      1096.9325      0.91163314   
   8925000     8925000   1.9623228     -4.5708876      1096.9022      0.91165833   
   8930000     8930000   2.0972202     -4.5689914      1096.8719      0.91168348   
   8935000     8935000   1.9971517     -4.6906495      1096.8417      0.91170855   
   8940000     8940000   2.0806727     -4.5865346      1096.8116      0.91173364   
   8945000     8945000   1.9311291     -4.6648601      1096.7815      0.91175865   
   8950000     8950000   2.0857186     -4.632052       1096.7513      0.9117837    
   8955000     8955000   1.9271968     -4.6046555      1096.7213      0.9118087    
   8960000     8960000   2.0149678     -4.4703989      1096.6912      0.91183374   
   8965000     8965000   1.9715224     -4.6133231      1096.6611      0.91185873   
   8970000     8970000   2.1112945     -4.5596997      1096.6311      0.91188369   
   8975000     8975000   2.0264257     -4.6248024      1096.6012      0.91190855   
   8980000     8980000   2.0905272     -4.5951377      1096.5713      0.91193337   
   8985000     8985000   2.0029201     -4.5390601      1096.5417      0.91195806   
   8990000     8990000   2.0490838     -4.6051353      1096.5121      0.91198265   
   8995000     8995000   2.0536875     -4.6210338      1096.4826      0.91200716   
   9000000     9000000   1.9728662     -4.5579852      1096.4532      0.91203163   
   9005000     9005000   2.0324483     -4.5443392      1096.4238      0.91205609   
   9010000     9010000   1.988681      -4.6027321      1096.3945      0.91208049   
   9015000     9015000   2.0004214     -4.4811459      1096.3652      0.91210487   
   9020000     9020000   1.9761321     -4.5678084      1096.3359      0.91212918   
   9025000     9025000   2.0061077     -4.4741201      1096.3068      0.91215342   
   9030000     9030000   2.0194418     -4.5898813      1096.2778      0.91217759   
   9035000     9035000   1.9914289     -4.5134867      1096.2488      0.91220171   
   9040000     9040000   2.0042709     -4.599869       1096.2199      0.91222575   
   9045000     9045000   1.9923816     -4.5518259      1096.191       0.91224978   
   9050000     9050000   2.0143298     -4.6013878      1096.1621      0.9122738    
   9055000     9055000   2.0080377     -4.5032088      1096.1334      0.91229774   
   9060000     9060000   1.9224425     -4.4932838      1096.1047      0.91232159   
   9065000     9065000   2.0326528     -4.4761279      1096.0761      0.9123454    
   9070000     9070000   1.9040549     -4.4995947      1096.0477      0.91236908   
   9075000     9075000   1.9980351     -4.4763357      1096.0193      0.91239273   
   9080000     9080000   1.9447902     -4.5402694      1095.991       0.91241629   
   9085000     9085000   1.9703032     -4.4571055      1095.9627      0.91243979   
   9090000     9090000   2.0328289     -4.5905542      1095.9346      0.91246322   
   9095000     9095000   1.9816666     -4.5145312      1095.9065      0.91248657   
   9100000     9100000   1.9952696     -4.5228578      1095.8786      0.91250985   
   9105000     9105000   1.9739579     -4.6643441      1095.8507      0.91253309   
   9110000     9110000   1.9928775     -4.4339058      1095.8227      0.91255636   
   9115000     9115000   1.9250859     -4.5222581      1095.7949      0.91257955   
   9120000     9120000   2.0279085     -4.5821511      1095.7671      0.91260272   
   9125000     9125000   2.0032071     -4.6146654      1095.7393      0.91262584   
   9130000     9130000   2.0352492     -4.598642       1095.7115      0.91264896   
   9135000     9135000   1.9940781     -4.5427428      1095.6838      0.91267206   
   9140000     9140000   1.9365357     -4.6580203      1095.6561      0.91269511   
   9145000     9145000   2.0308414     -4.5214237      1095.6284      0.91271824   
   9150000     9150000   2.0156891     -4.6926409      1095.6007      0.9127413    
   9155000     9155000   2.038934      -4.6677704      1095.573       0.91276436   
   9160000     9160000   2.0243344     -4.5305206      1095.5453      0.91278743   
   9165000     9165000   2.0377505     -4.5978725      1095.5177      0.91281041   
   9170000     9170000   1.9330161     -4.5149631      1095.4902      0.91283332   
   9175000     9175000   1.983371      -4.4698579      1095.4628      0.91285621   
   9180000     9180000   1.9941175     -4.6053174      1095.4354      0.91287899   
   9185000     9185000   2.0968697     -4.5368539      1095.4082      0.91290173   
   9190000     9190000   2.018515      -4.6334229      1095.381       0.91292435   
   9195000     9195000   2.081397      -4.4857674      1095.3539      0.91294692   
   9200000     9200000   1.9708239     -4.5441834      1095.3271      0.91296931   
   9205000     9205000   1.985638      -4.5203069      1095.3003      0.91299163   
   9210000     9210000   2.0074548     -4.4966769      1095.2736      0.91301385   
   9215000     9215000   2.0144238     -4.5943121      1095.2471      0.91303599   
   9220000     9220000   2.0152111     -4.5275357      1095.2206      0.91305808   
   9225000     9225000   2.008923      -4.6030339      1095.1942      0.91308011   
   9230000     9230000   1.9979326     -4.5354052      1095.1678      0.91310211   
   9235000     9235000   1.9853272     -4.5865857      1095.1414      0.91312408   
   9240000     9240000   2.0529404     -4.5439492      1095.1151      0.91314602   
   9245000     9245000   1.9780233     -4.6496111      1095.0889      0.91316788   
   9250000     9250000   1.9907469     -4.4131319      1095.0627      0.91318973   
   9255000     9255000   1.9929411     -4.5406652      1095.0366      0.91321146   
   9260000     9260000   1.9980361     -4.6327331      1095.0106      0.91323316   
   9265000     9265000   2.0501831     -4.4751012      1094.9846      0.91325483   
   9270000     9270000   2.0364801     -4.7135155      1094.9588      0.91327639   
   9275000     9275000   2.0133875     -4.4954625      1094.9329      0.91329795   
   9280000     9280000   1.9156376     -4.6020103      1094.9072      0.91331943   
   9285000     9285000   1.9955361     -4.4832081      1094.8814      0.91334095   
   9290000     9290000   1.9814087     -4.6344745      1094.8556      0.91336242   
   9295000     9295000   1.9698548     -4.6903617      1094.8299      0.91338394   
   9300000     9300000   2.0522834     -4.5488169      1094.804       0.91340554   
   9305000     9305000   1.8908583     -4.5529716      1094.7781      0.91342707   
   9310000     9310000   2.0310391     -4.4890057      1094.7523      0.91344862   
   9315000     9315000   1.9117079     -4.5021147      1094.7266      0.91347008   
   9320000     9320000   2.0500195     -4.4798235      1094.7009      0.91349151   
   9325000     9325000   1.9796406     -4.6021209      1094.6754      0.91351283   
   9330000     9330000   2.1291087     -4.4985602      1094.6499      0.91353413   
   9335000     9335000   2.0695244     -4.5892467      1094.6246      0.91355524   
   9340000     9340000   1.9509916     -4.5893419      1094.5994      0.91357624   
   9345000     9345000   2.0806861     -4.534373       1094.5742      0.91359726   
   9350000     9350000   2.0119875     -4.6111582      1094.5492      0.91361816   
   9355000     9355000   2.0173523     -4.4658071      1094.5242      0.91363904   
   9360000     9360000   2.0083449     -4.5580867      1094.4993      0.91365978   
   9365000     9365000   2.0207257     -4.6398455      1094.4746      0.91368043   
   9370000     9370000   2.071036      -4.5189414      1094.4499      0.91370105   
   9375000     9375000   2.0128005     -4.6420168      1094.4253      0.91372157   
   9380000     9380000   2.0647976     -4.600865       1094.4008      0.91374205   
   9385000     9385000   1.9862755     -4.6666735      1094.3763      0.91376251   
   9390000     9390000   1.9948567     -4.4811307      1094.3517      0.913783     
   9395000     9395000   1.9368915     -4.6697068      1094.3273      0.9138034    
   9400000     9400000   1.9390077     -4.4789575      1094.3028      0.91382384   
   9405000     9405000   2.0298948     -4.4467357      1094.2784      0.91384424   
   9410000     9410000   1.9806636     -4.635138       1094.2541      0.91386451   
   9415000     9415000   2.0472396     -4.5106468      1094.2299      0.91388476   
   9420000     9420000   1.933455      -4.6222081      1094.2057      0.91390496   
   9425000     9425000   2.045447      -4.5449234      1094.1815      0.91392519   
   9430000     9430000   1.9815816     -4.6721752      1094.1573      0.91394536   
   9435000     9435000   2.088329      -4.5389519      1094.1332      0.91396552   
   9440000     9440000   1.9586122     -4.6065183      1094.1092      0.91398559   
   9445000     9445000   2.0583453     -4.5083214      1094.0851      0.91400566   
   9450000     9450000   1.9405303     -4.5185865      1094.0612      0.91402564   
   9455000     9455000   1.9898382     -4.4478965      1094.0373      0.91404562   
   9460000     9460000   1.9576613     -4.5143691      1094.0135      0.9140655    
   9465000     9465000   2.0144981     -4.5510319      1093.9898      0.91408531   
   9470000     9470000   2.0302831     -4.5762658      1093.9662      0.91410503   
   9475000     9475000   1.9691708     -4.4868798      1093.9427      0.91412468   
   9480000     9480000   2.0271783     -4.6179511      1093.9193      0.91414422   
   9485000     9485000   2.0283618     -4.5867391      1093.896       0.91416369   
   9490000     9490000   2.0030956     -4.6198296      1093.8727      0.91418314   
   9495000     9495000   1.9322599     -4.636706       1093.8494      0.91420261   
   9500000     9500000   2.0326009     -4.5504394      1093.826       0.91422218   
   9505000     9505000   1.9131939     -4.5778228      1093.8027      0.91424169   
   9510000     9510000   2.0080437     -4.5040512      1093.7793      0.91426122   
   9515000     9515000   1.9702847     -4.5824637      1093.756       0.91428071   
   9520000     9520000   2.0360046     -4.4495753      1093.7327      0.91430019   
   9525000     9525000   1.9731595     -4.5658527      1093.7095      0.91431955   
   9530000     9530000   1.9754327     -4.4918428      1093.6864      0.91433888   
   9535000     9535000   2.0561315     -4.6119401      1093.6634      0.91435813   
   9540000     9540000   1.9479891     -4.5929637      1093.6404      0.91437731   
   9545000     9545000   2.0429184     -4.6140157      1093.6174      0.91439655   
   9550000     9550000   2.0086709     -4.6061671      1093.5944      0.91441577   
   9555000     9555000   2.1317543     -4.57018        1093.5715      0.91443496   
   9560000     9560000   1.9805613     -4.5764151      1093.5487      0.91445401   
   9565000     9565000   2.0080644     -4.4979675      1093.526       0.91447302   
   9570000     9570000   1.9927711     -4.6561299      1093.5033      0.91449194   
   9575000     9575000   2.0171109     -4.5281572      1093.4807      0.91451085   
   9580000     9580000   1.9864861     -4.6228661      1093.4583      0.91452966   
   9585000     9585000   2.0113254     -4.5604784      1093.4358      0.91454842   
   9590000     9590000   1.975876      -4.5849975      1093.4134      0.91456713   
   9595000     9595000   2.0043699     -4.5882769      1093.3911      0.91458585   
   9600000     9600000   2.0087629     -4.5396321      1093.3687      0.91460454   
   9605000     9605000   1.8870412     -4.655497       1093.3465      0.91462316   
   9610000     9610000   2.0356174     -4.609811       1093.3241      0.91464189   
   9615000     9615000   1.9980673     -4.5413828      1093.3017      0.91466059   
   9620000     9620000   1.9526483     -4.53781        1093.2794      0.91467924   
   9625000     9625000   2.0849253     -4.5508048      1093.2572      0.91469783   
   9630000     9630000   2.0046001     -4.6616526      1093.2351      0.91471632   
   9635000     9635000   1.9860813     -4.4855932      1093.213       0.91473481   
   9640000     9640000   1.9135221     -4.6361982      1093.1909      0.91475328   
   9645000     9645000   2.0445243     -4.5758475      1093.1688      0.91477181   
   9650000     9650000   1.9464523     -4.6815443      1093.1467      0.91479029   
   9655000     9655000   2.0048839     -4.5363683      1093.1246      0.91480882   
   9660000     9660000   2.0074891     -4.6503013      1093.1025      0.91482733   
   9665000     9665000   2.0501121     -4.5382458      1093.0803      0.91484583   
   9670000     9670000   1.9654142     -4.5811581      1093.0583      0.91486424   
   9675000     9675000   2.0188561     -4.6020252      1093.0364      0.91488264   
   9680000     9680000   2.0615993     -4.4397573      1093.0144      0.91490099   
   9685000     9685000   1.9795934     -4.5886085      1092.9927      0.91491922   
   9690000     9690000   2.1001769     -4.5570744      1092.9709      0.91493742   
   9695000     9695000   1.9407587     -4.5908793      1092.9493      0.9149555    
   9700000     9700000   2.022094      -4.5214282      1092.9277      0.91497357   
   9705000     9705000   1.8789239     -4.6464718      1092.9062      0.91499157   
   9710000     9710000   2.0327089     -4.5928028      1092.8847      0.91500964   
   9715000     9715000   2.0144399     -4.6114352      1092.8631      0.91502766   
   9720000     9720000   1.9572235     -4.5695971      1092.8416      0.91504569   
   9725000     9725000   2.0091354     -4.5181405      1092.8201      0.91506372   
   9730000     9730000   1.9518815     -4.5924715      1092.7987      0.91508163   
   9735000     9735000   2.0213678     -4.5070975      1092.7773      0.91509955   
   9740000     9740000   1.986838      -4.5422553      1092.756       0.9151174    
   9745000     9745000   1.9543915     -4.4881585      1092.7347      0.9151352    
   9750000     9750000   2.0477205     -4.4471957      1092.7136      0.9151529    
   9755000     9755000   2.0029961     -4.6369053      1092.6926      0.91517044   
   9760000     9760000   2.1255125     -4.6512204      1092.6717      0.91518796   
   9765000     9765000   1.9235451     -4.6010406      1092.6509      0.91520541   
   9770000     9770000   2.0194672     -4.5531569      1092.63        0.91522287   
   9775000     9775000   2.0130718     -4.5979755      1092.6092      0.9152403    
   9780000     9780000   1.9717712     -4.5275806      1092.5885      0.91525768   
   9785000     9785000   1.9829926     -4.6328987      1092.5678      0.91527503   
   9790000     9790000   2.0542917     -4.5623464      1092.547       0.91529239   
   9795000     9795000   1.9659004     -4.624538       1092.5264      0.91530968   
   9800000     9800000   2.0073019     -4.6462925      1092.5057      0.915327     
   9805000     9805000   2.0534553     -4.5469355      1092.4851      0.91534431   
   9810000     9810000   1.9262902     -4.5923862      1092.4645      0.91536157   
   9815000     9815000   2.0460012     -4.601847       1092.4439      0.91537885   
   9820000     9820000   1.8930044     -4.5822766      1092.4233      0.91539609   
   9825000     9825000   1.9840915     -4.4888608      1092.4027      0.91541334   
   9830000     9830000   1.9133403     -4.538788       1092.3822      0.91543054   
   9835000     9835000   1.9847727     -4.5595801      1092.3616      0.91544778   
   9840000     9840000   2.0142257     -4.5075916      1092.3411      0.91546498   
   9845000     9845000   1.9956576     -4.6661476      1092.3207      0.91548209   
   9850000     9850000   2.0829534     -4.5972083      1092.3002      0.9154992    
   9855000     9855000   1.9191316     -4.5320716      1092.2799      0.91551622   
   9860000     9860000   2.096364      -4.5414545      1092.2596      0.91553323   
   9865000     9865000   1.9661911     -4.5375198      1092.2395      0.9155501    
   9870000     9870000   1.9887411     -4.5131391      1092.2194      0.91556692   
   9875000     9875000   1.9107046     -4.5550289      1092.1994      0.91558369   
   9880000     9880000   2.1311692     -4.623983       1092.1795      0.91560045   
   9885000     9885000   1.9939808     -4.5697251      1092.1596      0.91561709   
   9890000     9890000   2.0495833     -4.6022036      1092.1398      0.9156337    
   9895000     9895000   1.9890927     -4.4619756      1092.1201      0.91565018   
   9900000     9900000   2.007558      -4.6003205      1092.1006      0.91566653   
   9905000     9905000   2.0560337     -4.4513366      1092.0812      0.91568283   
   9910000     9910000   1.9493311     -4.5789959      1092.0619      0.915699     
   9915000     9915000   2.052216      -4.4857855      1092.0426      0.9157152    
   9920000     9920000   1.9580158     -4.5735753      1092.0234      0.91573126   
   9925000     9925000   2.0351697     -4.5315287      1092.0043      0.91574727   
   9930000     9930000   1.9793766     -4.6553573      1091.9854      0.91576318   
   9935000     9935000   2.0764533     -4.6132599      1091.9664      0.91577907   
   9940000     9940000   1.8851233     -4.6114446      1091.9475      0.91579491   
   9945000     9945000   2.0164452     -4.63603        1091.9286      0.9158108    
   9950000     9950000   2.053215      -4.5776143      1091.9096      0.9158267    
   9955000     9955000   1.9149649     -4.5810492      1091.8908      0.91584253   
   9960000     9960000   2.0421019     -4.5236244      1091.8719      0.91585835   
   9965000     9965000   1.9096136     -4.4907706      1091.8532      0.91587406   
   9970000     9970000   2.1151972     -4.5114817      1091.8345      0.91588972   
   9975000     9975000   1.9684571     -4.576439       1091.816       0.91590522   
   9980000     9980000   2.0570782     -4.4410232      1091.7976      0.91592066   
   9985000     9985000   1.994058      -4.5497433      1091.7794      0.91593595   
   9990000     9990000   1.9434295     -4.4963972      1091.7612      0.91595119   
   9995000     9995000   2.0237195     -4.4855         1091.7432      0.91596635   
  10000000    10000000   1.9286704     -4.5126292      1091.7252      0.9159814    
  10005000    10005000   2.0489325     -4.5507613      1091.7073      0.91599645   
  10010000    10010000   2.0043686     -4.6019968      1091.6895      0.91601138   
  10015000    10015000   1.9898217     -4.4795685      1091.6718      0.91602625   
  10020000    10020000   1.8942715     -4.4979737      1091.6541      0.91604106   
  10025000    10025000   2.0612453     -4.5987569      1091.6365      0.91605582   
  10030000    10030000   1.9999619     -4.6610525      1091.619       0.91607052   
  10035000    10035000   1.9629209     -4.5354925      1091.6015      0.91608523   
  10040000    10040000   1.9992733     -4.5647122      1091.584       0.91609994   
  10045000    10045000   1.9906924     -4.7221229      1091.5664      0.91611467   
  10050000    10050000   1.9813698     -4.4938947      1091.5488      0.91612949   
  10055000    10055000   1.989354      -4.5855062      1091.5312      0.91614422   
  10060000    10060000   2.0145151     -4.5870662      1091.5137      0.91615893   
  10065000    10065000   1.9920784     -4.4974976      1091.4962      0.9161736    
  10070000    10070000   1.866522      -4.6079967      1091.4788      0.91618818   
  10075000    10075000   1.9883878     -4.5392607      1091.4614      0.91620281   
  10080000    10080000   1.995572      -4.610724       1091.444       0.91621741   
  10085000    10085000   2.0077365     -4.5949499      1091.4266      0.91623203   
  10090000    10090000   2.0154896     -4.585651       1091.4092      0.91624664   
  10095000    10095000   1.9115288     -4.5543445      1091.3918      0.9162612    
  10100000    10100000   2.0927433     -4.6094885      1091.3745      0.91627578   
  10105000    10105000   1.9439919     -4.5579004      1091.3572      0.91629029   
  10110000    10110000   2.0607755     -4.5207543      1091.34        0.91630475   
  10115000    10115000   1.9718351     -4.6242037      1091.3229      0.9163191    
  10120000    10120000   2.064754      -4.5110812      1091.3058      0.91633345   
  10125000    10125000   2.0167502     -4.7242212      1091.2888      0.91634768   
  10130000    10130000   2.0623282     -4.5865143      1091.2719      0.9163619    
  10135000    10135000   1.9750841     -4.6531021      1091.255       0.91637608   
  10140000    10140000   1.9955983     -4.5460613      1091.2381      0.91639026   
  10145000    10145000   2.0154362     -4.608071       1091.2213      0.91640443   
  10150000    10150000   1.9683633     -4.6695726      1091.2044      0.9164186    
  10155000    10155000   2.0159173     -4.543714       1091.1874      0.91643283   
  10160000    10160000   1.9101743     -4.6772613      1091.1705      0.91644704   
  10165000    10165000   2.0143341     -4.5811569      1091.1535      0.91646136   
  10170000    10170000   1.9959727     -4.4933804      1091.1364      0.91647567   
  10175000    10175000   1.9272111     -4.6017909      1091.1195      0.91648989   
  10180000    10180000   1.9795358     -4.4520787      1091.1026      0.91650413   
  10185000    10185000   1.9830109     -4.6302481      1091.0857      0.91651829   
  10190000    10190000   2.0448094     -4.4687744      1091.0688      0.91653244   
  10195000    10195000   1.9817775     -4.5658407      1091.0522      0.91654645   
  10200000    10200000   2.011057      -4.4477638      1091.0356      0.91656041   
  10205000    10205000   2.0671659     -4.6330708      1091.0191      0.91657422   
  10210000    10210000   2.0346254     -4.6777629      1091.0028      0.91658794   
  10215000    10215000   2.0419844     -4.4635211      1090.9865      0.91660164   
  10220000    10220000   1.9814531     -4.5896036      1090.9703      0.91661525   
  10225000    10225000   2.0474148     -4.5167418      1090.9541      0.91662882   
  10230000    10230000   1.9633455     -4.6472186      1090.9381      0.9166423    
  10235000    10235000   2.0411962     -4.5097513      1090.922       0.9166558    
  10240000    10240000   2.0199648     -4.6190758      1090.9061      0.91666921   
  10245000    10245000   2.008137      -4.5175068      1090.8901      0.91668259   
  10250000    10250000   2.0308249     -4.5888442      1090.8743      0.91669588   
  10255000    10255000   2.0047895     -4.5920975      1090.8586      0.91670909   
  10260000    10260000   2.0447096     -4.4157845      1090.843       0.91672225   
  10265000    10265000   1.9681553     -4.5810343      1090.8274      0.91673528   
  10270000    10270000   2.0665657     -4.5402226      1090.812       0.91674827   
  10275000    10275000   1.9409003     -4.5886794      1090.7966      0.91676117   
  10280000    10280000   2.0302638     -4.5419932      1090.7813      0.9167741    
  10285000    10285000   1.9415795     -4.6342014      1090.766       0.91678696   
  10290000    10290000   2.0173748     -4.5084584      1090.7506      0.91679984   
  10295000    10295000   1.9166838     -4.4839387      1090.7354      0.91681264   
  10300000    10300000   1.95162       -4.6250521      1090.7202      0.91682544   
  10305000    10305000   2.1015587     -4.6605111      1090.7048      0.91683832   
  10310000    10310000   1.9499144     -4.6526894      1090.6896      0.91685116   
  10315000    10315000   2.014096      -4.4631269      1090.6743      0.91686403   
  10320000    10320000   1.9901611     -4.6396881      1090.6591      0.91687682   
  10325000    10325000   2.1576847     -4.5391808      1090.6439      0.91688958   
  10330000    10330000   2.0112979     -4.6194998      1090.6289      0.9169022    
  10335000    10335000   2.0675166     -4.544167       1090.6139      0.91691477   
  10340000    10340000   1.9907007     -4.5936757      1090.5991      0.91692721   
  10345000    10345000   2.0036985     -4.5257877      1090.5844      0.91693961   
  10350000    10350000   1.9392562     -4.5133348      1090.5697      0.91695194   
  10355000    10355000   1.9617853     -4.4877183      1090.5551      0.91696423   
  10360000    10360000   1.9340491     -4.4713778      1090.5405      0.91697649   
  10365000    10365000   1.9330535     -4.556991       1090.526       0.91698872   
  10370000    10370000   2.0228254     -4.5065179      1090.5114      0.91700094   
  10375000    10375000   1.9356782     -4.5652821      1090.497       0.91701309   
  10380000    10380000   1.9522799     -4.4729384      1090.4825      0.91702528   
  10385000    10385000   1.9789292     -4.6560485      1090.468       0.91703743   
  10390000    10390000   1.9797146     -4.4801245      1090.4535      0.91704961   
  10395000    10395000   1.9628063     -4.519387       1090.4391      0.91706176   
  10400000    10400000   2.0178408     -4.5866236      1090.4247      0.91707386   
  10405000    10405000   2.04832       -4.5967307      1090.4104      0.91708592   
  10410000    10410000   1.8779781     -4.5058618      1090.3961      0.91709793   
  10415000    10415000   2.0364221     -4.5121277      1090.3818      0.91710995   
  10420000    10420000   2.0041198     -4.5749176      1090.3676      0.91712187   
  10425000    10425000   1.9988637     -4.5666656      1090.3535      0.91713373   
  10430000    10430000   1.9695229     -4.7122339      1090.3394      0.9171456    
  10435000    10435000   2.0243652     -4.5251964      1090.3252      0.91715755   
  10440000    10440000   1.8746877     -4.5625913      1090.3111      0.91716942   
  10445000    10445000   1.9841759     -4.5735675      1090.2969      0.91718135   
  10450000    10450000   2.0516312     -4.5823328      1090.2827      0.91719327   
  10455000    10455000   1.9552709     -4.6115264      1090.2686      0.91720516   
  10460000    10460000   1.9831977     -4.5003967      1090.2545      0.91721707   
  10465000    10465000   1.9454539     -4.6528849      1090.2404      0.91722893   
  10470000    10470000   2.0026614     -4.6243378      1090.2261      0.91724091   
  10475000    10475000   1.953704      -4.4597345      1090.2118      0.91725294   
  10480000    10480000   1.9134617     -4.5967081      1090.1976      0.91726491   
  10485000    10485000   2.0501907     -4.5376612      1090.1833      0.91727693   
  10490000    10490000   1.9397005     -4.568753       1090.1691      0.91728886   
  10495000    10495000   1.9667455     -4.3951356      1090.155       0.91730077   
  10500000    10500000   1.9579376     -4.6159524      1090.1409      0.91731259   
  10505000    10505000   2.0617835     -4.6190686      1090.1269      0.91732442   
  10510000    10510000   1.9774715     -4.5594918      1090.1129      0.91733621   
  10515000    10515000   1.9922225     -4.6065891      1090.0989      0.91734799   
  10520000    10520000   1.9529496     -4.4617623      1090.0849      0.91735974   
  10525000    10525000   1.9327135     -4.7009996      1090.071       0.91737143   
  10530000    10530000   2.0270792     -4.5517717      1090.057       0.91738326   
  10535000    10535000   1.9787309     -4.5970508      1090.043       0.91739504   
  10540000    10540000   2.0686518     -4.5732471      1090.029       0.91740681   
  10545000    10545000   2.0219569     -4.6348845      1090.015       0.91741853   
  10550000    10550000   2.0513085     -4.6414402      1090.0012      0.91743021   
  10555000    10555000   2.1601997     -4.5325977      1089.9874      0.91744182   
  10560000    10560000   1.9567277     -4.5599668      1089.9738      0.91745323   
  10565000    10565000   2.0711798     -4.526678       1089.9603      0.91746461   
  10570000    10570000   1.9920121     -4.6688184      1089.9469      0.9174759    
  10575000    10575000   2.0316229     -4.5248672      1089.9335      0.91748719   
  10580000    10580000   1.9152418     -4.6162619      1089.9201      0.91749842   
  10585000    10585000   1.9863482     -4.5093515      1089.9068      0.91750967   
  10590000    10590000   1.9780244     -4.6091043      1089.8935      0.91752086   
  10595000    10595000   1.9310317     -4.5256808      1089.8802      0.91753206   
  10600000    10600000   2.0372898     -4.5416906      1089.8668      0.91754329   
  10605000    10605000   1.9714211     -4.6525268      1089.8536      0.91755444   
[...]
  12890000    12890000   1.9634032     -4.589982       1087.0806      0.91989497   
  12895000    12895000   2.0723037     -4.626          1087.0779      0.91989729   
  12900000    12900000   1.9216737     -4.6295257      1087.0752      0.91989959   
  12905000    12905000   2.0100431     -4.561933       1087.0724      0.91990195   
  12910000    12910000   2.0178771     -4.688658       1087.0696      0.91990431   
  12915000    12915000   2.0492589     -4.5557814      1087.0668      0.91990671   
  12920000    12920000   2.0041332     -4.6341012      1087.064       0.91990907   
  12925000    12925000   2.0214509     -4.5675002      1087.0612      0.91991143   
  12930000    12930000   2.0297428     -4.5134914      1087.0584      0.91991374   
  12935000    12935000   1.9861991     -4.6163675      1087.0558      0.91991599   
  12940000    12940000   2.0384458     -4.5231123      1087.0531      0.91991826   
  12945000    12945000   1.9614477     -4.569992       1087.0505      0.9199205    
  12950000    12950000   1.9609569     -4.507516       1087.0478      0.91992275   
  12955000    12955000   1.9649028     -4.5835563      1087.0451      0.91992502   
  12960000    12960000   2.013617      -4.5414903      1087.0424      0.91992732   
  12965000    12965000   1.9585039     -4.568705       1087.0397      0.91992958   
  12970000    12970000   2.0092636     -4.5428654      1087.037       0.91993187   
  12975000    12975000   1.9769809     -4.5230153      1087.0343      0.91993416   
  12980000    12980000   1.9140251     -4.6040624      1087.0316      0.91993642   
  12985000    12985000   2.0688196     -4.5954751      1087.0289      0.91993876   
  12990000    12990000   1.9022271     -4.5318577      1087.0261      0.9199411    
  12995000    12995000   1.9693477     -4.6274074      1087.0233      0.91994351   
  13000000    13000000   2.0296169     -4.5917324      1087.0204      0.91994597   
  13005000    13005000   1.979505      -4.5565019      1087.0174      0.91994844   
  13010000    13010000   2.0057613     -4.5427411      1087.0146      0.91995088   
  13015000    13015000   1.9906588     -4.5722875      1087.0117      0.91995326   
  13020000    13020000   2.0466        -4.4594567      1087.009       0.91995559   
  13025000    13025000   2.0271628     -4.6733797      1087.0064      0.91995776   
  13030000    13030000   2.0901889     -4.5494336      1087.0038      0.91995995   
  13035000    13035000   1.9204302     -4.4914368      1087.0014      0.91996206   
  13040000    13040000   2.0046539     -4.5451994      1086.9989      0.91996413   
  13045000    13045000   2.0132127     -4.4792226      1086.9965      0.91996617   
  13050000    13050000   2.0368496     -4.7157031      1086.9942      0.91996813   
  13055000    13055000   2.0370824     -4.5088096      1086.9919      0.9199701    
  13060000    13060000   1.9563709     -4.556757       1086.9896      0.91997198   
  13065000    13065000   2.0356912     -4.4621652      1086.9874      0.91997387   
  13070000    13070000   1.8966482     -4.4968138      1086.9853      0.91997567   
  13075000    13075000   2.029998      -4.5901955      1086.9831      0.91997749   
  13080000    13080000   1.9426476     -4.5654762      1086.981       0.9199793    
  13085000    13085000   2.0266227     -4.5639084      1086.9788      0.91998116   
  13090000    13090000   1.9243332     -4.4936302      1086.9766      0.919983     
  13095000    13095000   1.9287812     -4.6336161      1086.9744      0.91998486   
  13100000    13100000   2.0004591     -4.4876129      1086.9721      0.9199868    
  13105000    13105000   1.8933942     -4.5624135      1086.9699      0.91998871   
  13110000    13110000   2.0035924     -4.513239       1086.9675      0.91999067   
  13115000    13115000   1.9282546     -4.5872179      1086.9653      0.9199926    
  13120000    13120000   2.0057252     -4.4324324      1086.9629      0.91999459   
  13125000    13125000   2.024654      -4.6894426      1086.9607      0.9199965    
  13130000    13130000   2.0339927     -4.6308094      1086.9584      0.91999843   
  13135000    13135000   2.0224308     -4.5571941      1086.9561      0.92000035   
  13140000    13140000   1.9733757     -4.6304703      1086.9539      0.92000226   
  13145000    13145000   2.0119842     -4.4971911      1086.9516      0.92000419   
  13150000    13150000   2.039805      -4.6521102      1086.9494      0.92000607   
  13155000    13155000   2.0701891     -4.5980959      1086.9471      0.92000795   
  13160000    13160000   1.9737049     -4.5690891      1086.945       0.92000977   
  13165000    13165000   1.9831913     -4.5183989      1086.9428      0.92001158   
  13170000    13170000   2.0014753     -4.4342161      1086.9407      0.92001336   
  13175000    13175000   1.9914752     -4.6011033      1086.9388      0.920015     
  13180000    13180000   2.032191      -4.6304005      1086.9368      0.92001666   
  13185000    13185000   2.0031951     -4.5112657      1086.9349      0.92001832   
  13190000    13190000   2.0031227     -4.5999071      1086.933       0.92001991   
  13195000    13195000   2.0098174     -4.5729914      1086.9311      0.92002149   
  13200000    13200000   1.8948869     -4.5200382      1086.9292      0.9200231    
  13205000    13205000   1.9732312     -4.4721835      1086.9273      0.92002475   
  13210000    13210000   1.9070062     -4.6020741      1086.9254      0.92002636   
  13215000    13215000   2.0320177     -4.5367603      1086.9234      0.92002805   
  13220000    13220000   1.9505637     -4.5912354      1086.9214      0.92002969   
  13225000    13225000   2.0687029     -4.609565       1086.9195      0.92003138   
  13230000    13230000   1.9734605     -4.5822598      1086.9175      0.92003306   
  13235000    13235000   1.9886438     -4.5945797      1086.9155      0.92003476   
  13240000    13240000   2.0073676     -4.5473251      1086.9134      0.9200365    
  13245000    13245000   1.9230421     -4.6405968      1086.9114      0.92003823   
  13250000    13250000   2.0612887     -4.5965679      1086.9092      0.92004003   
  13255000    13255000   1.9188467     -4.6541861      1086.9071      0.92004181   
  13260000    13260000   2.0709806     -4.5772847      1086.9049      0.9200437    
  13265000    13265000   1.9515649     -4.5804994      1086.9027      0.92004556   
  13270000    13270000   2.0429781     -4.4576479      1086.9005      0.92004742   
  13275000    13275000   2.0252491     -4.6405683      1086.8984      0.92004918   
  13280000    13280000   1.9411408     -4.4584378      1086.8964      0.92005092   
  13285000    13285000   1.9616136     -4.5008752      1086.8943      0.92005263   
  13290000    13290000   1.9819623     -4.5559624      1086.8924      0.9200543    
  13295000    13295000   1.9666462     -4.6149617      1086.8904      0.920056     
  13300000    13300000   2.0515925     -4.5994032      1086.8883      0.92005771   
  13305000    13305000   1.9307036     -4.5561832      1086.8864      0.92005938   
  13310000    13310000   2.0388557     -4.4961069      1086.8844      0.92006105   
  13315000    13315000   1.9866963     -4.6443396      1086.8825      0.92006265   
  13320000    13320000   1.9941997     -4.4866866      1086.8806      0.92006429   
  13325000    13325000   2.0102098     -4.6007786      1086.8787      0.92006587   
  13330000    13330000   1.9180984     -4.597832       1086.8768      0.92006745   
  13335000    13335000   2.0256927     -4.5493271      1086.8749      0.92006908   
  13340000    13340000   1.9418679     -4.5528347      1086.873       0.92007069   
  13345000    13345000   1.9698542     -4.4607203      1086.8711      0.92007228   
  13350000    13350000   1.978022      -4.6127884      1086.8693      0.92007381   
  13355000    13355000   2.0450195     -4.5101012      1086.8675      0.92007534   
  13360000    13360000   1.9635856     -4.5463549      1086.8658      0.92007679   
  13365000    13365000   2.0506473     -4.542587       1086.8641      0.92007821   
  13370000    13370000   1.9687397     -4.6027541      1086.8625      0.92007955   
  13375000    13375000   2.0302356     -4.5103136      1086.8609      0.92008091   
  13380000    13380000   2.014267      -4.5441168      1086.8594      0.92008221   
  13385000    13385000   1.9976215     -4.5861831      1086.8579      0.92008347   
  13390000    13390000   2.0027656     -4.4133982      1086.8565      0.9200847    
  13395000    13395000   1.9922764     -4.6066818      1086.8551      0.92008583   
  13400000    13400000   2.0455498     -4.5036584      1086.8538      0.92008699   
  13405000    13405000   1.9286894     -4.5882041      1086.8525      0.92008807   
  13410000    13410000   2.0378888     -4.5500975      1086.8512      0.92008918   
  13415000    13415000   2.0650581     -4.6677833      1086.8499      0.92009026   
  13420000    13420000   2.0195259     -4.6204353      1086.8487      0.92009131   
  13425000    13425000   1.998148      -4.5392033      1086.8474      0.92009237   
  13430000    13430000   1.9620401     -4.5460789      1086.8462      0.92009341   
  13435000    13435000   2.0341894     -4.609658       1086.8449      0.92009447   
  13440000    13440000   2.0440982     -4.5889071      1086.8437      0.92009552   
  13445000    13445000   1.9022598     -4.4388205      1086.8425      0.92009651   
  13450000    13450000   2.0345184     -4.5907542      1086.8413      0.9200975    
  13455000    13455000   1.9432744     -4.5770736      1086.8402      0.92009848   
  13460000    13460000   2.0092846     -4.4729532      1086.839       0.92009948   
  13465000    13465000   2.0648436     -4.6948429      1086.8379      0.92010042   
  13470000    13470000   1.9339601     -4.4380957      1086.8367      0.92010139   
  13475000    13475000   1.9925566     -4.4899024      1086.8357      0.92010231   
  13480000    13480000   1.9425554     -4.5074562      1086.8346      0.92010317   
  13485000    13485000   2.0090881     -4.4982229      1086.8336      0.92010402   
  13490000    13490000   2.0170489     -4.6425029      1086.8327      0.92010479   
  13495000    13495000   1.9767151     -4.5459717      1086.8318      0.92010559   
  13500000    13500000   1.9903522     -4.5835666      1086.8308      0.9201064    
  13505000    13505000   1.9720962     -4.55356        1086.8298      0.92010724   
  13510000    13510000   1.9567756     -4.60277        1086.8288      0.92010811   
  13515000    13515000   1.9728922     -4.5866928      1086.8277      0.92010908   
  13520000    13520000   2.0134198     -4.5527662      1086.8264      0.92011012   
  13525000    13525000   1.9095514     -4.6145223      1086.8252      0.92011114   
  13530000    13530000   2.0370991     -4.5529546      1086.8239      0.92011224   
  13535000    13535000   1.9685827     -4.6271206      1086.8227      0.9201133    
  13540000    13540000   2.0873512     -4.5955878      1086.8214      0.92011441   
  13545000    13545000   1.9341343     -4.5816272      1086.8201      0.92011548   
  13550000    13550000   2.0256266     -4.6172667      1086.8188      0.92011658   
  13555000    13555000   2.0451978     -4.4620077      1086.8175      0.92011769   
  13560000    13560000   1.9588064     -4.5264794      1086.8163      0.92011867   
  13565000    13565000   2.0165456     -4.5551305      1086.8152      0.92011962   
  13570000    13570000   2.0067315     -4.5885541      1086.8141      0.92012053   
  13575000    13575000   2.0295816     -4.5924253      1086.8131      0.9201214    
  13580000    13580000   2.0343579     -4.6639671      1086.8121      0.92012227   
  13585000    13585000   2.0028004     -4.6336835      1086.811       0.92012317   
  13590000    13590000   1.9952545     -4.5627631      1086.8099      0.92012413   
  13595000    13595000   1.9143775     -4.5747609      1086.8087      0.92012513   
  13600000    13600000   1.9849826     -4.4900656      1086.8075      0.92012617   
  13605000    13605000   1.9329325     -4.6344311      1086.8063      0.92012717   
  13610000    13610000   2.041987      -4.5198074      1086.805       0.92012824   
  13615000    13615000   1.9955021     -4.6612875      1086.8038      0.92012928   
  13620000    13620000   2.0336783     -4.4407917      1086.8025      0.92013035   
  13625000    13625000   1.9875116     -4.5893112      1086.8014      0.92013133   
  13630000    13630000   2.0338415     -4.571665       1086.8002      0.9201323    
  13635000    13635000   2.0397645     -4.5601431      1086.7992      0.9201332    
  13640000    13640000   1.9610592     -4.5214763      1086.7982      0.92013401   
  13645000    13645000   2.1592438     -4.601626       1086.7973      0.9201348    
  13650000    13650000   1.9791933     -4.6150357      1086.7965      0.92013548   
  13655000    13655000   2.0318196     -4.4738633      1086.7956      0.9201362    
  13660000    13660000   1.9548175     -4.6265454      1086.7948      0.92013689   
  13665000    13665000   2.0188791     -4.5032808      1086.7939      0.92013764   
  13670000    13670000   1.9348496     -4.6424901      1086.793       0.92013839   
  13675000    13675000   2.0204313     -4.5243691      1086.7921      0.92013921   
  13680000    13680000   1.8967084     -4.6138666      1086.7911      0.92014001   
  13685000    13685000   2.0195331     -4.5812025      1086.7901      0.92014091   
  13690000    13690000   1.9991512     -4.5720173      1086.789       0.92014179   
  13695000    13695000   2.0055373     -4.6446895      1086.7879      0.92014272   
  13700000    13700000   2.0482126     -4.6090346      1086.7868      0.9201437    
  13705000    13705000   1.9671296     -4.6849258      1086.7856      0.92014466   
  13710000    13710000   2.1005461     -4.6350751      1086.7844      0.92014569   
  13715000    13715000   1.9495389     -4.5750962      1086.7833      0.92014668   
  13720000    13720000   1.9560829     -4.5554057      1086.782       0.92014772   
  13725000    13725000   2.008363      -4.5455346      1086.7807      0.92014882   
  13730000    13730000   1.897624      -4.6031709      1086.7794      0.9201499    
  13735000    13735000   1.9653256     -4.4305385      1086.7781      0.92015106   
  13740000    13740000   1.9599293     -4.6157418      1086.7768      0.92015218   
  13745000    13745000   1.9190178     -4.5326622      1086.7753      0.92015337   
  13750000    13750000   2.0400291     -4.6123174      1086.7739      0.92015464   
  13755000    13755000   1.9638798     -4.6067782      1086.7723      0.92015592   
  13760000    13760000   2.0231362     -4.5444058      1086.7708      0.92015724   
  13765000    13765000   1.9914169     -4.5593835      1086.7693      0.9201585    
  13770000    13770000   1.9817315     -4.4858946      1086.7678      0.92015973   
  13775000    13775000   1.9568272     -4.5557198      1086.7665      0.92016089   
  13780000    13780000   2.0398068     -4.5455367      1086.7651      0.92016207   
  13785000    13785000   1.9155154     -4.5435212      1086.7637      0.92016321   
  13790000    13790000   1.9541977     -4.4802289      1086.7624      0.92016437   
  13795000    13795000   1.9837113     -4.5287715      1086.761       0.92016553   
  13800000    13800000   1.9679519     -4.5415062      1086.7597      0.92016665   
  13805000    13805000   1.937509      -4.5850263      1086.7583      0.9201678    
  13810000    13810000   2.0615505     -4.5366839      1086.7569      0.92016897   
  13815000    13815000   1.9850435     -4.6532983      1086.7556      0.92017008   
  13820000    13820000   2.0949328     -4.6258622      1086.7543      0.92017123   
  13825000    13825000   1.9180983     -4.623927       1086.7529      0.92017234   
  13830000    13830000   1.9055966     -4.3919756      1086.7515      0.92017352   
  13835000    13835000   2.0070466     -4.5932825      1086.7502      0.92017466   
  13840000    13840000   1.9421136     -4.6289721      1086.7488      0.92017581   
  13845000    13845000   2.0569801     -4.6023884      1086.7474      0.92017705   
  13850000    13850000   1.8116424     -4.4549806      1086.7459      0.92017827   
  13855000    13855000   2.0009714     -4.5256071      1086.7444      0.92017955   
  13860000    13860000   1.8773771     -4.4604145      1086.7429      0.92018083   
  13865000    13865000   2.0284636     -4.5826012      1086.7414      0.92018213   
  13870000    13870000   1.9860326     -4.6055528      1086.7398      0.92018344   
  13875000    13875000   1.9933095     -4.5718433      1086.7383      0.92018475   
  13880000    13880000   2.0187354     -4.564108       1086.7367      0.92018607   
  13885000    13885000   1.9468605     -4.6221791      1086.7352      0.92018738   
  13890000    13890000   2.0558753     -4.598527       1086.7336      0.92018874   
  13895000    13895000   2.0091327     -4.6034907      1086.732       0.92019009   
  13900000    13900000   2.0059004     -4.5786278      1086.7304      0.92019143   
  13905000    13905000   2.072784      -4.6660312      1086.7288      0.92019277   
  13910000    13910000   1.9718913     -4.5136501      1086.7273      0.92019409   
  13915000    13915000   1.9639734     -4.6306494      1086.7257      0.92019539   
  13920000    13920000   2.0328277     -4.4929221      1086.7241      0.92019675   
  13925000    13925000   1.9439909     -4.5411214      1086.7226      0.92019805   
  13930000    13930000   2.0362207     -4.6365046      1086.721       0.92019937   
  13935000    13935000   2.0238403     -4.6009578      1086.7194      0.9202007    
  13940000    13940000   2.0154334     -4.5704604      1086.7179      0.92020201   
  13945000    13945000   2.0189275     -4.601123       1086.7164      0.92020327   
  13950000    13950000   1.9567377     -4.6412855      1086.7149      0.92020454   
  13955000    13955000   2.049361      -4.5294711      1086.7134      0.92020585   
  13960000    13960000   1.9722913     -4.665794       1086.7119      0.92020708   
  13965000    13965000   1.9755711     -4.5351331      1086.7104      0.92020838   
  13970000    13970000   2.0217751     -4.5611387      1086.7088      0.92020969   
  13975000    13975000   1.954519      -4.6445137      1086.7073      0.92021097   
  13980000    13980000   2.063084      -4.5432196      1086.7057      0.92021232   
  13985000    13985000   1.9633748     -4.6004561      1086.7042      0.92021358   
  13990000    13990000   2.1399378     -4.6641324      1086.7027      0.92021487   
  13995000    13995000   1.9618472     -4.5940756      1086.7013      0.92021609   
  14000000    14000000   2.0318972     -4.5691031      1086.6998      0.92021733   
Loop time of 14428.4 on 1 procs for 8000000 steps with 1000 atoms

Performance: 23952.832 tau/day, 554.464 timesteps/s, 554.464 katom-step/s
100.0% CPU use with 1 MPI tasks x 1 OpenMP threads

MPI task timing breakdown:
Section |  min time  |  avg time  |  max time  |%varavg| %total
---------------------------------------------------------------
Pair    | 12815      | 12815      | 12815      |   0.0 | 88.82
Neigh   | 183.89     | 183.89     | 183.89     |   0.0 |  1.27
Comm    | 395.07     | 395.07     | 395.07     |   0.0 |  2.74
Output  | 96.866     | 96.866     | 96.866     |   0.0 |  0.67
Modify  | 873.04     | 873.04     | 873.04     |   0.0 |  6.05
Other   |            | 64.29      |            |       |  0.45

Nlocal:           1000 ave        1000 max        1000 min
Histogram: 1 0 0 0 0 0 0 0 0 0
Nghost:           3746 ave        3746 max        3746 min
Histogram: 1 0 0 0 0 0 0 0 0 0
Neighs:          81881 ave       81881 max       81881 min
Histogram: 1 0 0 0 0 0 0 0 0 0
FullNghs:       163762 ave      163762 max      163762 min
Histogram: 1 0 0 0 0 0 0 0 0 0

Total # of neighbors = 163762
Ave neighs/atom = 163.762
Neighbor list builds = 40110
Dangerous builds = 0

Total wall time: 4:00:28
