LAMMPS (27 Jun 2024)
OMP_NUM_THREADS environment is not set. Defaulting to 1 thread. (src/comm.cpp:98)
  using 1 OpenMP thread(s) per MPI task
read_restart ${restart}
read_restart lj.restart.1000000
Reading restart file ...
  restart file = 27 Jun 2024, LAMMPS = 27 Jun 2024
  restoring atom style atomic from restart
  orthogonal box = (-4.417958 -4.417958 -4.417958) to (4.417958 4.417958 4.417958)
  1 by 1 by 1 MPI processor grid
  restoring pair style lj/cut from restart
  1000 atoms
  read_restart CPU = 0.001 seconds

neighbor 1.0 bin
neigh_modify check yes delay 0 every 1

thermo 5000
variable tot_pe equal pe
variable tot_vol  equal vol
variable tot_density equal density
thermo_style custom step step temp pe vol density

fix myfile all ave/time 10000 1 10000 v_tot_pe v_tot_vol v_tot_density file av_config_observables.dat


compute orient all orientorder/atom degrees 8 1 2 3 4 5 6 7 8 nnn NULL cutoff 2.5
compute poteng all pe/atom
dump           qdump all custom 10000 steinhardt.dat  id c_poteng c_orient[1] c_orient[2] c_orient[3] c_orient[4] c_orient[5] c_orient[6] c_orient[7] c_orient[8]
dump_modify    qdump sort id pbc yes

compute Q6 all reduce ave c_orient[6]
compute Press all pressure thermo_temp

fix 3 all ave/time 10000 1 10000 c_Q6 file q6.dat
fix 4 all ave/time 10000 1 10000 c_Press file virial_pressure.dat

# 5) Run
restart 1000000 lj.restart
fix 2 all npt temp 2.0 2.0 1.0 iso 100 100 100000
Resetting global fix info from restart file:
  fix style: npt, fix ID: 2

dump           trajdump all atom 10000 trajectory.lammpstrj
dump_modify    trajdump sort id pbc yes

timestep 0.0005
run ${time}
run 1000000
Generated 0 of 0 mixed pair_coeff terms from geometric mixing rule
All restart file global fix info was re-assigned
Neighbor list info ...
  update: every = 1 steps, delay = 0 steps, check = yes
  max neighbors/atom: 2000, page size: 100000
  master list distance cutoff = 3.5
  ghost atom cutoff = 3.5
  binsize = 1.75, bins = 6 6 6
  2 neighbor lists, perpetual/occasional/extra = 1 1 0
  (1) pair lj/cut, perpetual
      attributes: half, newton on
      pair build: half/bin/atomonly/newton
      stencil: half/bin/3d
      bin: standard
  (2) compute orientorder/atom, occasional
      attributes: full, newton on
      pair build: full/bin/atomonly
      stencil: full/bin/3d
      bin: standard
Per MPI rank memory allocation (min/avg/max) = 7.807 | 7.807 | 7.807 Mbytes
   Step        Step          Temp          PotEng         Volume        Density    
   1000000     1000000   1.982419       1.3687913      689.85011      1.4495903    
   1005000     1005000   1.9993177      1.2524549      689.84989      1.4495907    
   1010000     1010000   2.0194557      1.1736509      689.84967      1.4495912    
   1015000     1015000   2.0779401      1.3174914      689.84946      1.4495916    
   1020000     1020000   1.9870414      1.1550621      689.84925      1.4495921    
   1025000     1025000   2.0791387      1.2499743      689.84904      1.4495925    
   1030000     1030000   1.9798233      1.1689576      689.84884      1.4495929    
   1035000     1035000   1.9851617      1.2946769      689.84865      1.4495933    
   1040000     1040000   1.9828859      1.2549776      689.84845      1.4495937    
   1045000     1045000   1.9714036      1.2224867      689.84826      1.4495941    
   1050000     1050000   2.0477201      1.260733       689.84808      1.4495945    
   1055000     1055000   1.922217       1.1793787      689.8479       1.4495949    
   1060000     1060000   2.0303826      1.2243684      689.84772      1.4495953    
   1065000     1065000   2.0375174      1.120241       689.84754      1.4495957    
   1070000     1070000   1.9722638      1.0808889      689.84737      1.449596     
   1075000     1075000   1.9996305      1.2895765      689.8472       1.4495964    
   1080000     1080000   1.9807853      1.0480188      689.84704      1.4495967    
   1085000     1085000   1.980245       1.351925       689.84687      1.4495971    
   1090000     1090000   1.931933       1.2160905      689.84671      1.4495974    
   1095000     1095000   2.0393575      1.3219079      689.84656      1.4495977    
   1100000     1100000   1.9883131      1.1819231      689.8464       1.4495981    
   1105000     1105000   1.9713713      1.259893       689.84625      1.4495984    
   1110000     1110000   2.0364719      1.1707354      689.8461       1.4495987    
   1115000     1115000   1.9622433      1.1834381      689.84596      1.449599     
   1120000     1120000   2.0202077      1.2766904      689.84581      1.4495993    
   1125000     1125000   2.0076988      1.0971091      689.84567      1.4495996    
   1130000     1130000   2.0023072      1.2273529      689.84553      1.4495999    
   1135000     1135000   2.0075275      1.1957123      689.8454       1.4496002    
   1140000     1140000   1.9041501      1.2799925      689.84526      1.4496004    
   1145000     1145000   2.0573014      1.175271       689.84513      1.4496007    
   1150000     1150000   1.9043532      1.1280582      689.845        1.449601     
   1155000     1155000   1.9910536      1.254485       689.84488      1.4496013    
   1160000     1160000   1.9551375      1.2309848      689.84475      1.4496015    
   1165000     1165000   1.9081173      1.2990159      689.84463      1.4496018    
   1170000     1170000   2.0437135      1.189896       689.84451      1.449602     
   1175000     1175000   1.9854037      1.0148081      689.84439      1.4496023    
   1180000     1180000   2.0343658      1.2640827      689.84427      1.4496025    
   1185000     1185000   1.9955018      1.1056642      689.84416      1.4496028    
   1190000     1190000   2.0536658      1.2885733      689.84405      1.449603     
   1195000     1195000   2.0234862      1.117533       689.84393      1.4496032    
   1200000     1200000   2.0539709      1.310686       689.84383      1.4496035    
   1205000     1205000   2.0313027      1.189513       689.84372      1.4496037    
   1210000     1210000   2.006868       1.1914281      689.84361      1.4496039    
   1215000     1215000   2.0777857      1.2630785      689.84351      1.4496041    
   1220000     1220000   1.9384344      1.2794864      689.84341      1.4496043    
   1225000     1225000   2.0009948      1.3886486      689.84331      1.4496046    
   1230000     1230000   2.0355514      1.1218253      689.84321      1.4496048    
   1235000     1235000   2.0278913      1.2197288      689.84311      1.449605     
   1240000     1240000   2.0588677      1.364102       689.84302      1.4496052    
   1245000     1245000   2.023764       1.1017098      689.84293      1.4496054    
   1250000     1250000   2.0513314      1.3107921      689.84283      1.4496055    
   1255000     1255000   1.9968028      1.0915381      689.84274      1.4496057    
   1260000     1260000   2.0451556      1.2561444      689.84265      1.4496059    
   1265000     1265000   1.9382279      1.1092554      689.84257      1.4496061    
   1270000     1270000   1.9684053      1.3029302      689.84248      1.4496063    
   1275000     1275000   1.9954774      1.149103       689.8424       1.4496065    
   1280000     1280000   1.9444296      1.2121829      689.84231      1.4496066    
   1285000     1285000   2.0140667      1.2543519      689.84223      1.4496068    
   1290000     1290000   1.951155       1.1313354      689.84215      1.449607     
   1295000     1295000   2.0479655      1.2269284      689.84207      1.4496072    
   1300000     1300000   2.0320374      1.1368939      689.84199      1.4496073    
   1305000     1305000   1.8905482      1.0805448      689.84191      1.4496075    
   1310000     1310000   1.9699385      1.2949999      689.84183      1.4496077    
   1315000     1315000   1.998514       1.229809       689.84176      1.4496078    
   1320000     1320000   1.9463491      1.2251763      689.84168      1.449608     
   1325000     1325000   1.9788266      1.2902319      689.84161      1.4496081    
   1330000     1330000   1.9627119      1.1495194      689.84153      1.4496083    
   1335000     1335000   2.0725908      1.2575288      689.84146      1.4496084    
   1340000     1340000   2.0234271      1.0767555      689.84139      1.4496086    
   1345000     1345000   2.0309615      1.1879924      689.84132      1.4496087    
   1350000     1350000   2.008889       1.3370799      689.84125      1.4496089    
   1355000     1355000   1.9782809      1.1451003      689.84118      1.449609     
   1360000     1360000   2.0820374      1.2520332      689.84112      1.4496092    
   1365000     1365000   1.9872266      1.2393478      689.84105      1.4496093    
   1370000     1370000   2.0076265      1.2146717      689.84098      1.4496094    
   1375000     1375000   2.0630173      1.2521287      689.84092      1.4496096    
   1380000     1380000   1.9898591      1.1869878      689.84086      1.4496097    
   1385000     1385000   2.0832068      1.3285441      689.84079      1.4496098    
   1390000     1390000   1.9601128      1.2663088      689.84073      1.44961      
   1395000     1395000   1.956696       1.3195375      689.84067      1.4496101    
   1400000     1400000   1.9932564      1.3453837      689.84061      1.4496102    
   1405000     1405000   1.9869281      1.1673976      689.84055      1.4496103    
   1410000     1410000   1.9794129      1.4408602      689.84049      1.4496105    
   1415000     1415000   1.9646114      1.2092777      689.84044      1.4496106    
   1420000     1420000   1.9763318      1.3043309      689.84038      1.4496107    
   1425000     1425000   2.0660165      1.1763498      689.84032      1.4496108    
   1430000     1430000   2.0033305      1.211391       689.84027      1.4496109    
   1435000     1435000   1.9956842      1.2822783      689.84021      1.4496111    
   1440000     1440000   1.9598068      1.2518997      689.84016      1.4496112    
   1445000     1445000   1.9816141      1.2384303      689.84011      1.4496113    
   1450000     1450000   1.9621007      1.3028995      689.84005      1.4496114    
   1455000     1455000   1.9406734      1.2644116      689.84         1.4496115    
   1460000     1460000   2.0773466      1.1944414      689.83995      1.4496116    
   1465000     1465000   1.9986356      1.1768074      689.8399       1.4496117    
   1470000     1470000   2.0986359      1.3488623      689.83985      1.4496118    
   1475000     1475000   2.0789566      1.1050876      689.8398       1.4496119    
   1480000     1480000   1.9826264      1.2430924      689.83975      1.449612     
   1485000     1485000   2.0664224      1.217952       689.8397       1.4496121    
   1490000     1490000   1.9658663      1.2350352      689.83965      1.4496122    
   1495000     1495000   2.0549682      1.3693412      689.83961      1.4496123    
   1500000     1500000   2.0064393      1.1927142      689.83956      1.4496124    
   1505000     1505000   2.0361826      1.1806271      689.83951      1.4496125    
   1510000     1510000   2.0533861      1.258536       689.83947      1.4496126    
   1515000     1515000   1.9097717      1.3044813      689.83942      1.4496127    
   1520000     1520000   2.0599201      1.2486768      689.83938      1.4496128    
   1525000     1525000   2.0001325      1.119939       689.83933      1.4496129    
   1530000     1530000   2.1010334      1.160121       689.83929      1.449613     
   1535000     1535000   1.9210183      1.1080743      689.83924      1.4496131    
   1540000     1540000   2.0246937      1.2174445      689.8392       1.4496132    
   1545000     1545000   1.9949769      1.1470533      689.83916      1.4496133    
   1550000     1550000   1.9482039      1.2478329      689.83912      1.4496134    
   1555000     1555000   1.9911126      1.2626161      689.83907      1.4496135    
   1560000     1560000   1.8794436      1.2132767      689.83903      1.4496135    
   1565000     1565000   2.0383667      1.2424929      689.83899      1.4496136    
   1570000     1570000   1.9702535      1.1742131      689.83895      1.4496137    
   1575000     1575000   1.9517579      1.0514154      689.83891      1.4496138    
   1580000     1580000   2.0153857      1.2782025      689.83886      1.4496139    
   1585000     1585000   1.9092106      1.214696       689.83882      1.449614     
   1590000     1590000   1.9920081      1.3546786      689.83878      1.4496141    
   1595000     1595000   1.9556592      1.217667       689.83874      1.4496141    
   1600000     1600000   2.0607988      1.2655853      689.8387       1.4496142    
   1605000     1605000   1.9766144      1.2373935      689.83866      1.4496143    
   1610000     1610000   1.9963675      1.2214244      689.83862      1.4496144    
   1615000     1615000   2.1269945      1.3376307      689.83858      1.4496145    
   1620000     1620000   2.0131329      1.1929199      689.83854      1.4496146    
   1625000     1625000   1.9861875      1.2184837      689.83851      1.4496146    
   1630000     1630000   2.0092879      1.3387838      689.83847      1.4496147    
   1635000     1635000   2.0844774      1.0524113      689.83843      1.4496148    
   1640000     1640000   2.0674271      1.2610333      689.83839      1.4496149    
   1645000     1645000   1.9892678      1.1328152      689.83836      1.449615     
   1650000     1650000   2.0761918      1.2254212      689.83832      1.449615     
   1655000     1655000   2.0183892      1.2307807      689.83828      1.4496151    
   1660000     1660000   1.9879907      1.1786953      689.83825      1.4496152    
   1665000     1665000   2.0681018      1.2488747      689.83821      1.4496153    
   1670000     1670000   1.9702328      1.1366215      689.83817      1.4496153    
   1675000     1675000   2.0236746      1.1940868      689.83814      1.4496154    
   1680000     1680000   1.9947434      1.2243255      689.8381       1.4496155    
   1685000     1685000   1.9233968      1.2112692      689.83807      1.4496156    
   1690000     1690000   2.0221489      1.3226554      689.83803      1.4496156    
   1695000     1695000   1.9573047      1.1324133      689.838        1.4496157    
   1700000     1700000   2.0191041      1.2191262      689.83796      1.4496158    
   1705000     1705000   1.9764398      1.2377376      689.83793      1.4496159    
   1710000     1710000   1.9737983      1.1975015      689.83789      1.4496159    
   1715000     1715000   2.0894716      1.1190785      689.83786      1.449616     
   1720000     1720000   1.9005414      1.1341121      689.83782      1.4496161    
   1725000     1725000   2.0088562      1.1855553      689.83779      1.4496161    
   1730000     1730000   2.0823515      1.1502559      689.83776      1.4496162    
   1735000     1735000   1.9501015      1.1222685      689.83772      1.4496163    
   1740000     1740000   2.0665723      1.22273        689.83769      1.4496164    
   1745000     1745000   1.9545517      1.1846732      689.83765      1.4496164    
   1750000     1750000   1.9465153      1.1021525      689.83762      1.4496165    
   1755000     1755000   2.0138483      1.2748823      689.83759      1.4496166    
   1760000     1760000   1.9464564      1.1234188      689.83755      1.4496166    
   1765000     1765000   2.0691812      1.1856677      689.83752      1.4496167    
   1770000     1770000   1.9936671      1.1703397      689.83749      1.4496168    
   1775000     1775000   1.951225       1.2732042      689.83745      1.4496169    
   1780000     1780000   2.0432766      1.2094823      689.83742      1.4496169    
   1785000     1785000   1.972802       1.1663365      689.83739      1.449617     
   1790000     1790000   1.9897063      1.3073543      689.83735      1.4496171    
   1795000     1795000   1.9354005      1.2719718      689.83732      1.4496171    
   1800000     1800000   1.9823022      1.2490072      689.83729      1.4496172    
   1805000     1805000   2.0513044      1.2031161      689.83725      1.4496173    
   1810000     1810000   1.9423938      1.2805099      689.83722      1.4496173    
   1815000     1815000   2.0191472      1.1971992      689.83719      1.4496174    
   1820000     1820000   2.067192       1.1217554      689.83716      1.4496175    
   1825000     1825000   1.9784332      1.373232       689.83713      1.4496175    
   1830000     1830000   1.8582969      1.3145809      689.83709      1.4496176    
   1835000     1835000   2.064418       1.2904078      689.83706      1.4496177    
   1840000     1840000   2.008086       1.1721489      689.83703      1.4496177    
   1845000     1845000   1.9844963      1.2578521      689.837        1.4496178    
   1850000     1850000   2.0224531      1.3491029      689.83697      1.4496179    
   1855000     1855000   1.9448663      1.2392544      689.83694      1.4496179    
   1860000     1860000   2.0041861      1.4148003      689.83691      1.449618     
   1865000     1865000   1.9982279      1.1935077      689.83688      1.4496181    
   1870000     1870000   2.0719396      1.1546495      689.83685      1.4496181    
   1875000     1875000   2.0534316      1.2999653      689.83682      1.4496182    
   1880000     1880000   1.998969       1.1557451      689.83679      1.4496183    
   1885000     1885000   2.0880485      1.2950886      689.83676      1.4496183    
   1890000     1890000   1.9489716      1.1793222      689.83673      1.4496184    
   1895000     1895000   2.0794948      1.2280042      689.8367       1.4496184    
   1900000     1900000   1.8893763      1.214674       689.83667      1.4496185    
   1905000     1905000   2.0657781      1.1928612      689.83664      1.4496186    
   1910000     1910000   1.9386512      1.1405917      689.83661      1.4496186    
   1915000     1915000   1.9878308      1.1879168      689.83658      1.4496187    
   1920000     1920000   1.993359       1.2823462      689.83655      1.4496188    
   1925000     1925000   1.8828975      1.2149126      689.83652      1.4496188    
   1930000     1930000   2.0387799      1.1942623      689.83649      1.4496189    
   1935000     1935000   1.9508652      1.1942505      689.83646      1.4496189    
   1940000     1940000   2.0560217      1.1411764      689.83643      1.449619     
   1945000     1945000   1.9724566      1.2704114      689.8364       1.4496191    
   1950000     1950000   1.915421       1.1018168      689.83637      1.4496191    
   1955000     1955000   2.0120191      1.2978412      689.83634      1.4496192    
   1960000     1960000   1.9851488      1.1063699      689.83631      1.4496193    
   1965000     1965000   2.0487501      1.2930457      689.83628      1.4496193    
   1970000     1970000   1.9319279      1.2470957      689.83625      1.4496194    
   1975000     1975000   2.0213875      1.3506803      689.83622      1.4496194    
   1980000     1980000   2.0111078      1.1992058      689.83619      1.4496195    
   1985000     1985000   2.0302263      1.1718971      689.83616      1.4496196    
   1990000     1990000   2.0379517      1.3528625      689.83613      1.4496196    
   1995000     1995000   1.9624837      1.2346613      689.8361       1.4496197    
   2000000     2000000   2.0399343      1.2827965      689.83608      1.4496198    
Loop time of 2661.76 on 1 procs for 1000000 steps with 1000 atoms

Performance: 16229.863 tau/day, 375.691 timesteps/s, 375.691 katom-step/s
100.0% CPU use with 1 MPI tasks x 1 OpenMP threads

MPI task timing breakdown:
Section |  min time  |  avg time  |  max time  |%varavg| %total
---------------------------------------------------------------
Pair    | 2456.3     | 2456.3     | 2456.3     |   0.0 | 92.28
Neigh   | 0.64478    | 0.64478    | 0.64478    |   0.0 |  0.02
Comm    | 62.674     | 62.674     | 62.674     |   0.0 |  2.35
Output  | 18.55      | 18.55      | 18.55      |   0.0 |  0.70
Modify  | 115.09     | 115.09     | 115.09     |   0.0 |  4.32
Other   |            | 8.51       |            |       |  0.32

Nlocal:           1000 ave        1000 max        1000 min
Histogram: 1 0 0 0 0 0 0 0 0 0
Nghost:           4782 ave        4782 max        4782 min
Histogram: 1 0 0 0 0 0 0 0 0 0
Neighs:         131048 ave      131048 max      131048 min
Histogram: 1 0 0 0 0 0 0 0 0 0
FullNghs:       262096 ave      262096 max      262096 min
Histogram: 1 0 0 0 0 0 0 0 0 0

Total # of neighbors = 262096
Ave neighs/atom = 262.096
Neighbor list builds = 118
Dangerous builds = 0

Total wall time: 0:44:22
